LAMMPS data file via write_data, version 27 May 2021, timestep = 706

864 atoms
3 atom types

-0.10757616768207239 21.2275761676819 xlo xhi
-0.10757616768207239 21.2275761676819 ylo yhi
-0.10757616768207239 21.2275761676819 zlo zhi

Masses

1 58.69
2 58.93
3 52

Atoms # atomic

1 3 0.23481466817633453 0.2833046019504861 0.30687113371980784 0 0 0
2 2 2.0133199503526416 2.0654116633418416 0.2954782272052843 0 0 0
3 2 2.0364084496138943 0.2976049183398625 2.0428681309916574 0 0 0
4 2 0.24891792954638683 2.044888120206415 2.0359197248333385 0 0 0
5 2 3.7955283466727643 0.2931101676695236 0.26217327486467606 0 0 0
6 2 5.576910921570945 2.0695665611003404 0.2526846968156954 0 0 0
7 3 5.564121406270709 0.33017247047107806 1.9436372243653866 0 0 0
8 3 3.7882109748823702 2.137494466797652 1.9601550695859353 0 0 0
9 3 7.369557694020902 0.30401172817034333 0.22876487480887855 0 0 0
10 1 9.15818266263871 2.0330840654130515 0.22536189766180736 0 0 0
11 2 9.12608318253518 0.2538345831528535 1.9815529306328457 0 0 0
12 1 7.363051148411616 2.027454348607948 1.9995963053661456 0 0 0
13 3 10.924324626430533 0.2656129873449779 0.18837911897681045 0 0 0
14 3 12.700872579076552 2.0316130601239544 0.26938081212402765 0 0 0
15 1 12.66190450801789 0.2359813598369248 2.0383744555829493 0 0 0
16 1 10.903183084732499 2.0222670672990497 2.0254015813542208 0 0 0
17 1 14.443077326757454 0.25736485708844975 0.2516136395541904 0 0 0
18 2 16.222775413123202 2.014310690317062 0.2588419110247186 0 0 0
19 3 16.248999809063395 0.2983035771866174 2.0155948532770203 0 0 0
20 2 14.483226250105005 1.9971979866457734 2.0532756709470177 0 0 0
21 2 18.029075762579385 0.2606132661979924 0.25280678818034147 0 0 0
22 2 19.816585659488904 2.0156500691923998 0.2563241920975794 0 0 0
23 2 19.809159509514934 0.26204070379333777 2.0410590334460728 0 0 0
24 2 18.02914697557796 2.033235715224348 2.009415495690044 0 0 0
25 1 0.22450319418460044 3.838123750234539 0.2792090300599197 0 0 0
26 2 2.0276850455658666 5.61988181037278 0.2603440475194703 0 0 0
27 2 2.0187363815345276 3.83191062307536 2.0279376931383624 0 0 0
28 1 0.234295108056772 5.611146672696584 2.0608003952465888 0 0 0
29 2 3.7836336526996486 3.846515343191325 0.24545387388711642 0 0 0
30 1 5.603844262162508 5.583042829866754 0.2322150507248738 0 0 0
31 2 5.603402615756201 3.83707233844991 2.0249837575421634 0 0 0
32 2 3.828527341559021 5.581321856256821 2.055698087594789 0 0 0
33 2 7.36805591437464 3.818592630042959 0.2584218467244186 0 0 0
34 1 9.109512072358886 5.5593592104732235 0.2246676134548118 0 0 0
35 3 9.128354745787298 3.798578869784586 2.018091799585014 0 0 0
36 3 7.325461819332883 5.553430779549156 2.0903744983263395 0 0 0
37 2 10.94400808056767 3.80012728964728 0.238621109829216 0 0 0
38 3 12.70283485809497 5.526654851058514 0.24744551597076997 0 0 0
39 1 12.678142695838867 3.8097752928665094 2.0496247851245126 0 0 0
40 2 10.88529402014077 5.590085228159209 1.9714141993645782 0 0 0
41 3 14.46946761377795 3.758072206055582 0.25906853181175465 0 0 0
42 1 16.259686662034564 5.566997026702669 0.2401712052342251 0 0 0
43 2 16.271554870622925 3.78869573496841 2.0181509132743627 0 0 0
44 1 14.503212092311056 5.540171935228139 2.0146573175364093 0 0 0
45 3 18.044889630894637 3.7224964414133344 0.2577955406226277 0 0 0
46 2 19.78125728948781 5.590086819708642 0.2672716684137919 0 0 0
47 3 19.752568087961247 3.773950586281045 2.0156729672225135 0 0 0
48 2 18.038467911165558 5.569615267881195 2.0148333171843533 0 0 0
49 2 0.25210093358203184 7.365423893840537 0.24891069430329169 0 0 0
50 3 1.9350028806421988 9.062589296793917 0.16716594930675782 0 0 0
51 2 2.0137972647826987 7.38489338019157 2.0250534097413087 0 0 0
52 2 0.2554802510521163 9.128578360231863 2.0247242024487235 0 0 0
53 1 3.791518243368872 7.367007783230214 0.2402317323392894 0 0 0
54 1 5.565209244358105 9.157740558809284 0.2118506694826774 0 0 0
55 1 5.609919187000962 7.384587050930773 2.0188787044878413 0 0 0
56 1 3.7847164118204786 9.146713029959948 1.9667768347465735 0 0 0
57 1 7.349615412498601 7.342510250330451 0.21683608389480197 0 0 0
58 1 9.129742872789736 9.115483810747222 0.22788528499014102 0 0 0
59 1 9.089955951697407 7.344326454568691 2.007306639273293 0 0 0
60 2 7.402892652150264 9.166425010874388 2.0293529010337563 0 0 0
61 3 10.921533505656319 7.3038344709204255 0.26779983909293364 0 0 0
62 3 12.670348016540462 9.152848434169051 0.20438750688034527 0 0 0
63 1 12.708925978677364 7.317985158029576 1.997176075887049 0 0 0
64 3 10.910540405574272 9.068866345739945 2.019429788935845 0 0 0
65 2 14.433046198068974 7.323096066848263 0.21052321518644443 0 0 0
66 1 16.256586972811515 9.131377218002958 0.2548593830603563 0 0 0
67 3 16.28096305205347 7.317804044443329 2.003592605933975 0 0 0
68 1 14.47299753449425 9.117119403281974 1.9910411547673983 0 0 0
69 3 18.078121851177627 7.378677900633886 0.28090749149682415 0 0 0
70 2 19.81097286229219 9.112873905480956 0.23753907105346056 0 0 0
71 1 19.819427283955054 7.349545581193918 2.0299856502762026 0 0 0
72 3 18.03179148787055 9.114043920163887 2.06279651526935 0 0 0
73 1 0.24792603710056071 10.912867303093385 0.22584192927551178 0 0 0
74 2 2.015058453403866 12.692633806019487 0.21892885899470127 0 0 0
75 2 2.038561323272183 10.870172948497295 1.9628872392827397 0 0 0
76 1 0.25744777365058724 12.673657232998035 2.003790207111011 0 0 0
77 3 3.7349982505607615 10.93847630525726 0.18743314599696906 0 0 0
78 3 5.520905768316975 12.674434796260552 0.19283021312662435 0 0 0
79 1 5.572686972321158 10.917958097957332 1.9887043844109984 0 0 0
80 1 3.792355829644205 12.661015089623964 1.9923441821855477 0 0 0
81 1 7.356403128605012 10.914726251799813 0.2177602690273053 0 0 0
82 2 9.149383074087192 12.67643962250724 0.2928212879229156 0 0 0
83 3 9.16297054172588 10.898111058423959 1.9973813376035157 0 0 0
84 3 7.359839930009241 12.68374529925296 1.9723708655265444 0 0 0
85 2 10.885212033498709 10.888271680937608 0.3210337437433198 0 0 0
86 1 12.709624041697177 12.695976434291875 0.24052285361088532 0 0 0
87 1 12.683164249299951 10.91077236610655 2.020725917694053 0 0 0
88 3 10.946490492341194 12.796888623770196 2.0058475877882036 0 0 0
89 1 14.484529377781923 10.933823862520928 0.23268679106701415 0 0 0
90 3 16.25310043641253 12.712035023007163 0.27589131119584426 0 0 0
91 3 16.23880456169053 10.943145696386845 2.0646210977726995 0 0 0
92 3 14.456777003424325 12.71661150526254 2.0931013275336112 0 0 0
93 1 18.028836731858565 10.904305848912866 0.26661567669136055 0 0 0
94 1 19.811404165506953 12.70812663260071 0.23799659415169225 0 0 0
95 1 19.810882643395598 10.916009485126903 2.026042079968985 0 0 0
96 3 18.035084329402252 12.7132021195935 2.0288581262186165 0 0 0
97 3 0.2748848466984217 14.476185139684203 0.26668572345969066 0 0 0
98 2 2.047238185466835 16.240710072259418 0.2391409772558677 0 0 0
99 2 2.049054714894577 14.46462372007709 2.006533774646658 0 0 0
100 2 0.24445134317824221 16.238163811713136 2.0029768900595744 0 0 0
101 2 3.807688049037898 14.464827641943565 0.22729467745590567 0 0 0
102 3 5.571824699041399 16.252126010444016 0.2247690583944965 0 0 0
103 3 5.543135618497088 14.444937141036839 1.986092461199275 0 0 0
104 3 3.7692217581722276 16.25345853381632 1.9707758650665337 0 0 0
105 1 7.372287007202201 14.446675336743917 0.2307269788182165 0 0 0
106 2 9.115315398215392 16.253534685314403 0.2220513731233428 0 0 0
107 3 9.203185654798045 14.557528501407754 1.9984681545361842 0 0 0
108 1 7.362985408375233 16.239165134997236 2.01566455972114 0 0 0
109 2 10.893119233048173 14.486613546522271 0.2858401471051245 0 0 0
110 2 12.69506855349815 16.2469280227257 0.25811672153969545 0 0 0
111 2 12.695552433855202 14.49667250248241 2.010562626798224 0 0 0
112 2 10.91709093701978 16.242181175688923 2.0377844188438834 0 0 0
113 2 14.494716025253096 14.446262122952557 0.25109426130099366 0 0 0
114 2 16.270360304545427 16.26598188354376 0.2468814192572897 0 0 0
115 1 16.246689233598005 14.48287944605603 2.0263854882246357 0 0 0
116 2 14.483318042389952 16.26881553770998 2.0016942087501017 0 0 0
117 2 18.035675054330696 14.466950469338572 0.25221459656708145 0 0 0
118 1 19.812914514639175 16.259278844131703 0.21453698974056773 0 0 0
119 3 19.806269407272918 14.51134094871944 2.0167458319464755 0 0 0
120 3 18.019156681885466 16.264221846148875 2.0125572517993136 0 0 0
121 2 0.26414504176477044 18.026760129365417 0.23680089047812258 0 0 0
122 2 2.015028097634555 19.83666421623278 0.24795874121356357 0 0 0
123 2 2.0293696743709186 18.00867497390156 2.0256044714983408 0 0 0
124 1 0.25029801270189295 19.80987666540438 2.014776613542089 0 0 0
125 1 3.807524654610888 18.057308692663522 0.23217249203741777 0 0 0
126 1 5.607943120543247 19.83010410078647 0.2332381412077899 0 0 0
127 3 5.569201942426336 18.022870665407567 2.0539784501850256 0 0 0
128 1 3.809245755086324 19.836162676211753 2.011232014871951 0 0 0
129 3 7.378771259422354 18.01614759921221 0.2586499400611651 0 0 0
130 1 9.131829840025084 19.818805966898427 0.2236395969459723 0 0 0
131 2 9.109379760067778 18.02711550857818 1.9998055205862326 0 0 0
132 3 7.357315295757569 19.82366582706223 2.0600083173952113 0 0 0
133 1 10.913375378154575 18.001798826061545 0.2252108460728509 0 0 0
134 1 12.675779623587076 19.78985824381468 0.23929222370426806 0 0 0
135 3 12.716136184139193 17.912969680992227 1.941800510454603 0 0 0
136 1 10.919739021129153 19.797167879052047 2.007607241261073 0 0 0
137 2 14.491492746382198 18.038122977740578 0.22671499278396262 0 0 0
138 3 16.248133778850587 19.853863568446624 0.24607516633395726 0 0 0
139 3 16.218783047482365 17.971589821882404 1.996443757938969 0 0 0
140 3 14.485303741853306 19.806297849298033 1.9911287048849071 0 0 0
141 3 18.00948209854663 18.026488153284117 0.22606944457804018 0 0 0
142 1 19.800743635654516 19.80741904357986 0.24553599436383522 0 0 0
143 3 19.848235675370013 17.987568352852822 2.005074866101095 0 0 0
144 1 18.033311947951503 19.795087584350544 2.0111006430645957 0 0 0
145 3 0.20809392843810662 0.3016496248243946 3.7570934829419533 0 0 0
146 3 1.997264370037565 2.086204442994875 3.7903179368974236 0 0 0
147 1 2.0144750863710397 0.28023733613234836 5.55165775611548 0 0 0
148 2 0.237588116791431 2.0615224456570336 5.56993135463509 0 0 0
149 3 3.82014223658276 0.28270657507622965 3.784105930467822 0 0 0
150 1 5.56696460579734 2.0285420358864874 3.7886038874839514 0 0 0
151 2 5.566487864649678 0.2551288318688806 5.57898238027975 0 0 0
152 1 3.7899156703971655 2.034585013572534 5.582034308477142 0 0 0
153 2 7.329785892233864 0.23698548490417837 3.7546607049626832 0 0 0
154 2 9.120409986746795 2.023823218037199 3.804169990198917 0 0 0
155 2 9.148223948444405 0.28502458612739046 5.600812069494695 0 0 0
156 1 7.35810946465169 2.0203999803217996 5.599195374569709 0 0 0
157 3 10.859318192816112 0.26130854113525764 3.8509628491398438 0 0 0
158 1 12.68675032311251 2.0286322485247106 3.8097355748184456 0 0 0
159 3 12.685473656228087 0.2483498102120667 5.57430029477793 0 0 0
160 1 10.92233796863964 2.0532796226765195 5.589219412853018 0 0 0
161 2 14.444486557228611 0.19829315592948588 3.8259890769761555 0 0 0
162 3 16.229931969177994 1.9904514455845346 3.777359216234515 0 0 0
163 2 16.200273238218077 0.2455384994033055 5.598660624818869 0 0 0
164 3 14.480994407883951 2.0013039157709005 5.565035671687357 0 0 0
165 1 18.02293870192462 0.2518980729024749 3.807906026220039 0 0 0
166 2 19.797905340551914 2.063307312459658 3.810739201385946 0 0 0
167 1 19.801552641765078 0.26750901817824024 5.570937860714716 0 0 0
168 1 18.009617269921378 2.036247826210691 5.575833923502738 0 0 0
169 1 0.22220276268726993 3.846700702409408 3.8024454177300537 0 0 0
170 2 2.0396506023939356 5.6091516127425285 3.811144466045014 0 0 0
171 2 2.014524549944923 3.825230138606063 5.5837857987658674 0 0 0
172 1 0.23462288935868358 5.62265063101608 5.55914182260543 0 0 0
173 2 3.780737694443783 3.806978536080649 3.8016243948802866 0 0 0
174 3 5.459207239436116 5.582120941973791 3.7438026305134597 0 0 0
175 1 5.583439056321609 3.8282916516964502 5.563290927887318 0 0 0
176 3 3.731233411338883 5.606479915627708 5.5298337245306 0 0 0
177 3 7.389779613958204 3.715293810548156 3.782202838883267 0 0 0
178 1 9.125467402404547 5.561306249938974 3.7893864857320274 0 0 0
179 3 9.12524072743772 3.7930622025603573 5.613365546945573 0 0 0
180 3 7.363698887967593 5.640552327394429 5.562086104918628 0 0 0
181 2 10.853039243713207 3.7912633558255813 3.7881570976065184 0 0 0
182 2 12.688006057712851 5.6002477389702 3.7934205151944727 0 0 0
183 1 12.721011528828155 3.819989800567907 5.578263316856791 0 0 0
184 1 10.91672932690197 5.55990796705248 5.548498285094182 0 0 0
185 1 14.493427281177928 3.814104079143387 3.818016585299266 0 0 0
186 3 16.33869017581929 5.589845792788407 3.792474300618114 0 0 0
187 1 16.230786510814106 3.8152150225936694 5.596625942277554 0 0 0
188 2 14.475172369074912 5.609840453097896 5.575819605529561 0 0 0
189 2 17.99999071992082 3.787253547500103 3.7903227319619557 0 0 0
190 3 19.693353566746527 5.567033330085001 3.838272513319962 0 0 0
191 3 19.778601669937864 3.8285913373350313 5.585586847157458 0 0 0
192 2 18.021001069158256 5.577362442932141 5.567970337384788 0 0 0
193 3 0.289770147809837 7.4671222061549125 3.8025880886967585 0 0 0
194 2 2.038125434826203 9.148735817135778 3.807902795520128 0 0 0
195 2 2.026877567421185 7.388241595499175 5.573380278151043 0 0 0
196 2 0.23687614075066205 9.128761914347368 5.571401894641317 0 0 0
197 2 3.7796309901865612 7.377214890264732 3.782513993619135 0 0 0
198 1 5.560555867741396 9.15676703501506 3.7703895176219793 0 0 0
199 1 5.547312768580733 7.385239183565194 5.538638563932816 0 0 0
200 2 3.7629163523010765 9.148631177705674 5.620105683487693 0 0 0
201 3 7.412748120918865 7.438992866037523 3.8410864407328598 0 0 0
202 2 9.176248697410495 9.155104308924855 3.771729195487172 0 0 0
203 2 9.129375525101333 7.356935485129661 5.532564914656243 0 0 0
204 2 7.339505081639253 9.122753662831135 5.574714688945597 0 0 0
205 2 10.902309456467245 7.379960539522071 3.776942599245232 0 0 0
206 3 12.697153248808974 9.078351218049503 3.794624979076658 0 0 0
207 3 12.707678854911096 7.301916524384032 5.494913514100563 0 0 0
208 2 10.94849159752675 9.114973220582923 5.59955012955771 0 0 0
209 1 14.500832691616228 7.309119020789954 3.758656866212106 0 0 0
210 2 16.229088537437367 9.106881688258648 3.7906130517449634 0 0 0
211 2 16.234929300700493 7.352610163276143 5.550737808174656 0 0 0
212 3 14.47870235618052 9.088826403873307 5.560171923175237 0 0 0
213 2 18.02571271694907 7.371579571485234 3.7792465953573062 0 0 0
214 2 19.79625121901775 9.144347956139036 3.787912602423615 0 0 0
215 2 19.782493587365956 7.355864432872536 5.538646817530339 0 0 0
216 3 17.98131197386457 9.110892279708779 5.535595958795896 0 0 0
217 3 0.37180382040006305 10.800023823639734 3.7498780965902365 0 0 0
218 1 2.017513853240161 12.66124808767193 3.784944529790385 0 0 0
219 3 2.044297827922567 10.869293265473802 5.597114424193168 0 0 0
220 1 0.25090817566503393 12.649158029566054 5.567941745159604 0 0 0
221 2 3.7688923758427584 10.914438666718397 3.800248121796711 0 0 0
222 3 5.5188288022540775 12.669125241198126 3.772647576245335 0 0 0
223 1 5.556929913862998 10.909090394352944 5.582579012418325 0 0 0
224 2 3.781045744832021 12.672064490855245 5.586572437690795 0 0 0
225 1 7.348328074906048 10.911641391411408 3.7748288873884244 0 0 0
226 1 9.139551945862577 12.696378275482578 3.7617011591889464 0 0 0
227 1 9.112107551432148 10.917994748715453 5.568720895637298 0 0 0
228 1 7.353213143171342 12.673598204417088 5.579604111699877 0 0 0
229 3 10.889381616227992 10.824430586896304 3.8015181721854203 0 0 0
230 3 12.679572162413315 12.725056917439211 3.7763779529510604 0 0 0
231 2 12.681224586974004 10.906622630942302 5.5307226200245045 0 0 0
232 2 10.929212059220637 12.709933292603866 5.515630368269592 0 0 0
233 2 14.464948708777007 10.880939745650963 3.803206110389174 0 0 0
234 2 16.264449757665442 12.6788302432509 3.768576137878445 0 0 0
235 2 16.23181736669816 10.918741249436797 5.544727560802724 0 0 0
236 3 14.464390921337863 12.701687278531539 5.445231967759825 0 0 0
237 3 17.981727780625057 10.86367803125895 3.816284354593148 0 0 0
238 3 19.84031648616436 12.709252694646926 3.7746105282507627 0 0 0
239 1 19.810690271791586 10.897971191420112 5.553332122858685 0 0 0
240 1 18.0477452515958 12.675933943390005 5.571956760476612 0 0 0
241 2 0.2404442184879925 14.465478874891541 3.760297242994181 0 0 0
242 3 1.9855344400704495 16.233388493990148 3.7534348373433217 0 0 0
243 1 2.009344488741585 14.463792595279914 5.568901671933203 0 0 0
244 3 0.23321618256151017 16.24767606894405 5.5383718261396115 0 0 0
245 3 3.7682041322924245 14.445967026540497 3.77404644072005 0 0 0
246 3 5.573855517316803 16.258966042012982 3.783140763746706 0 0 0
247 1 5.577578616809353 14.437359469355618 5.561244436712509 0 0 0
248 3 3.8247492451711653 16.24750722350233 5.581775720221321 0 0 0
249 1 7.349506750854939 14.437137826369273 3.7783349021857027 0 0 0
250 2 9.141309138823104 16.264832123028356 3.799668186583417 0 0 0
251 1 9.136030855567759 14.46248785021062 5.573627404785203 0 0 0
252 1 7.366529969007919 16.236243409231758 5.580228683584846 0 0 0
253 3 10.940104106166896 14.544951286047647 3.7981435634412444 0 0 0
254 2 12.689701857324671 16.253231779787274 3.8064435234779674 0 0 0
255 2 12.707039815549642 14.477485243841564 5.5892426246490965 0 0 0
256 3 10.942879944904305 16.255261446998112 5.545690245628295 0 0 0
257 2 14.44776929372972 14.482507600970033 3.7951091163125916 0 0 0
258 2 16.268885296356057 16.26659355584705 3.7775727939152204 0 0 0
259 1 16.261838421828262 14.473603281100553 5.582808212374681 0 0 0
260 1 14.495225101873501 16.248280326731468 5.592546183370689 0 0 0
261 1 18.038341261849407 14.47654030754728 3.8056672008474632 0 0 0
262 2 19.81046424331269 16.279953947325765 3.7665539078708448 0 0 0
263 3 19.85696122697187 14.488127627081958 5.519345550972057 0 0 0
264 1 18.04516300917999 16.261263411825976 5.579266054667602 0 0 0
265 1 0.23845638379521414 18.059223564333884 3.7965036438555892 0 0 0
266 3 2.0592123435306893 19.80804957288416 3.7586936929862587 0 0 0
267 3 2.0297313546402136 18.026922490102944 5.548366145112582 0 0 0
268 2 0.2832220997749444 19.828698853320592 5.555828598539255 0 0 0
269 2 3.8018430377852774 17.997956828673992 3.8016579741861958 0 0 0
270 3 5.587641280652068 19.7972348164543 3.8140809176405286 0 0 0
271 2 5.580118695713642 18.023411705896013 5.586353489222829 0 0 0
272 3 3.8284481400653227 19.82719145400376 5.545125495301427 0 0 0
273 2 7.351322839608806 18.02348897547041 3.787190469761246 0 0 0
274 1 9.136295322630517 19.82330449505551 3.7866050637891915 0 0 0
275 3 9.111719631809738 18.022064872099083 5.569185641920548 0 0 0
276 1 7.370930472140845 19.829896471677376 5.575088336033483 0 0 0
277 1 10.92617298364618 18.031990052693555 3.7849075433415447 0 0 0
278 3 12.716288713243644 19.806642130409173 3.7887157885596636 0 0 0
279 3 12.732604416097908 18.00606333414498 5.608044132492321 0 0 0
280 1 10.911432574430028 19.793405042542815 5.585057738986134 0 0 0
281 1 14.478335939312721 18.01517721099953 3.784999057647982 0 0 0
282 1 16.25847176113115 19.801963896856694 3.787404159799617 0 0 0
283 1 16.25813659772639 18.018575568323303 5.594626943782094 0 0 0
284 3 14.477012486603096 19.780854793444956 5.61315216578481 0 0 0
285 3 18.058419392888208 18.04816586623289 3.799015317705785 0 0 0
286 3 19.78841860374379 19.838264656100893 3.8043691778257243 0 0 0
287 1 19.815425711771777 18.074554210033153 5.575712955674016 0 0 0
288 2 17.992549280751565 19.82729240111204 5.601433662716659 0 0 0
289 1 0.24190652059979023 0.2679938120064383 7.3551705308180555 0 0 0
290 2 2.0205970706911733 2.0360041314691233 7.364132505360223 0 0 0
291 2 2.058178102553003 0.23081738738784977 9.149004142331478 0 0 0
292 1 0.24054368566731252 2.023750982612078 9.140297279194533 0 0 0
293 2 3.798009898200463 0.2352898770219832 7.374470828564505 0 0 0
294 2 5.59827570605839 2.082530279781837 7.372574432207601 0 0 0
295 1 5.605101554175342 0.2740476040601118 9.138656728823973 0 0 0
296 1 3.80885009391956 2.0402212399243025 9.127320677565207 0 0 0
297 3 7.357399119859563 0.2720740624189024 7.344028492392431 0 0 0
298 3 9.14732261090824 1.9899919168543376 7.379860590584439 0 0 0
299 1 9.146640512080637 0.2578949089489849 9.141644138489486 0 0 0
300 2 7.37914638889408 2.046184875847025 9.102954680348404 0 0 0
301 2 10.939207212896912 0.24853732752283234 7.345802519090342 0 0 0
302 1 12.710007712302408 2.0534243871820363 7.369036492612764 0 0 0
303 1 12.69281372467765 0.27821920166094666 9.155739658232406 0 0 0
304 2 10.90818422482643 2.0360510155611204 9.14388513025863 0 0 0
305 3 14.450622297424994 0.22060931007693163 7.354277315680103 0 0 0
306 1 16.230188141777873 2.030094816065042 7.3626450157149215 0 0 0
307 2 16.265905816934165 0.23677572026518032 9.113608605495699 0 0 0
308 1 14.476030262217813 2.0545951269418996 9.138857816252099 0 0 0
309 3 18.019696770252573 0.24128111261705276 7.377124688384271 0 0 0
310 3 19.77008771377843 2.0181418893571763 7.355980809851981 0 0 0
311 2 19.777010267708917 0.2543716940101258 9.114201679540152 0 0 0
312 2 18.032479843776073 2.0400580101558865 9.118999017557577 0 0 0
313 1 0.22451377226474498 3.7982855975340244 7.349932874247083 0 0 0
314 2 2.019019126067129 5.596405292595949 7.352164321532025 0 0 0
315 3 2.006692708857471 3.8220663987225434 9.097559796930733 0 0 0
316 1 0.19799630697461318 5.56214345047359 9.116075100375292 0 0 0
317 3 3.7557860722379934 3.796266688521856 7.342672414478952 0 0 0
318 3 5.532729010551141 5.62014083726282 7.357680241230959 0 0 0
319 3 5.6255877807319585 3.829537311918207 9.112985300217806 0 0 0
320 2 3.785562877183295 5.557688569235851 9.11768616405678 0 0 0
321 3 7.4057255872129515 3.8945322411351175 7.3821005404732585 0 0 0
322 3 9.140301499697085 5.652403736445417 7.376416999254359 0 0 0
323 2 9.11673429946682 3.807824127252741 9.095113160882832 0 0 0
324 2 7.381093421810092 5.599039716293383 9.136866735226679 0 0 0
325 1 10.913971734712602 3.8116091808452257 7.377462044304339 0 0 0
326 1 12.694740658788612 5.598884396290513 7.36694258681297 0 0 0
327 2 12.694742087697954 3.8459492723509423 9.158696472364932 0 0 0
328 1 10.920003645306828 5.597733956956722 9.137108112392314 0 0 0
329 3 14.471305394978648 3.8654136477670504 7.399513655299175 0 0 0
330 1 16.220099177522005 5.596730653701964 7.363467167420802 0 0 0
331 2 16.252888433589792 3.837058283921804 9.131726041936174 0 0 0
332 2 14.434999439773085 5.626685544160628 9.198828356118415 0 0 0
333 3 18.019855509629995 3.7900288677011633 7.388872593308046 0 0 0
334 2 19.76660591662529 5.557541626058009 7.3192931709407105 0 0 0
335 3 19.746432905014103 3.7995367948459955 9.144676835957274 0 0 0
336 1 18.021379999697206 5.585335185985613 9.122668498029176 0 0 0
337 2 0.20983290262214738 7.360411167373757 7.349485613083159 0 0 0
338 3 1.9870932936533499 9.033521773309975 7.382923389767757 0 0 0
339 2 1.9970337356162688 7.313233943818955 9.138069918371038 0 0 0
340 2 0.24451955001520623 9.136203825807815 9.13728585515264 0 0 0
341 2 3.792188648925824 7.348779773679826 7.377138003125144 0 0 0
342 2 5.5515183218465785 9.128102202448357 7.386125735628604 0 0 0
343 3 5.567939329214659 7.353806785610776 9.12527570303631 0 0 0
344 3 3.714589979792906 9.127015390961452 9.152039682706251 0 0 0
345 2 7.343033038007441 7.333959006026331 7.344629250814518 0 0 0
346 1 9.12147248442076 9.12050548221579 7.319454171856266 0 0 0
347 2 9.165315995694106 7.391348283797702 9.155277283220796 0 0 0
348 3 7.36152565473363 9.096434507983224 9.09839927694801 0 0 0
349 3 10.91105636238869 7.3500631605817786 7.2982841989237786 0 0 0
350 3 12.698613194736593 9.137859499540317 7.369658405777704 0 0 0
351 3 12.68718830337163 7.37815178103168 9.214891308134446 0 0 0
352 3 10.93406107124781 9.150841611534506 9.14445733299942 0 0 0
353 2 14.419202218128545 7.3727979432161295 7.35438810030731 0 0 0
354 2 16.198606077951442 9.13343606071716 7.3224876316666805 0 0 0
355 1 16.229350063930173 7.356777549590385 9.147883685473985 0 0 0
356 1 14.479517403809995 9.125486844324497 9.150568336879559 0 0 0
357 1 18.010038984132574 7.3599850208951585 7.344462430079291 0 0 0
358 1 19.769637091219117 9.115537656127303 7.347901539320114 0 0 0
359 3 19.81590702874068 7.339243351224766 9.118683711724046 0 0 0
360 2 18.005229390784564 9.117287517966242 9.112769388991993 0 0 0
361 3 0.2460861889166938 10.84605791716272 7.369377182563442 0 0 0
362 3 1.9885314738483215 12.723604645448898 7.357606845348336 0 0 0
363 2 1.9950137648481514 10.928546429309904 9.108979568500203 0 0 0
364 3 0.23674770326148525 12.683681500356306 9.161217565422394 0 0 0
365 3 3.7843519141216597 10.900246042686335 7.3683636904260705 0 0 0
366 1 5.590378239422206 12.698044001408729 7.373578944630574 0 0 0
367 3 5.553918717855343 10.919256155207089 9.146424300174646 0 0 0
368 1 3.785464740640794 12.703142142573673 9.142282657658056 0 0 0
369 2 7.343321551879612 10.922887331752964 7.411582627386166 0 0 0
370 2 9.156174061881883 12.66341643815383 7.401665279228254 0 0 0
371 3 9.159358448470464 10.89819803850535 9.109817908719277 0 0 0
372 3 7.381596619920059 12.722593722919797 9.169101451608869 0 0 0
373 3 10.91215922537404 10.961399974960703 7.303868799124728 0 0 0
374 3 12.672204641159487 12.648831534892627 7.323674481735566 0 0 0
375 2 12.703284348890387 10.904672059529227 9.119923813244464 0 0 0
376 2 10.934829656039252 12.67462291283438 9.167081259602288 0 0 0
377 3 14.479438275766777 10.855588221869764 7.302736650454682 0 0 0
378 1 16.229778462128966 12.68982469597931 7.32889327210017 0 0 0
379 2 16.21673929592328 10.916804413249956 9.107553186165108 0 0 0
380 3 14.452158069334407 12.64825671305015 9.11977200399155 0 0 0
381 1 18.000575268202766 10.891174739911452 7.341025421504764 0 0 0
382 3 19.842746563356208 12.6531157556246 7.392761918113338 0 0 0
383 1 19.760836431006247 10.877549211618453 9.14428611651793 0 0 0
384 1 18.016294324439293 12.680691741725573 9.137700250567121 0 0 0
385 2 0.19867358455753403 14.490556599274058 7.347548420937561 0 0 0
386 1 2.0098576063175217 16.245045530855762 7.350856491538422 0 0 0
387 3 1.9731807084969584 14.472126116123668 9.160930343290982 0 0 0
388 1 0.2542675861588868 16.269825902312412 9.15553943577483 0 0 0
389 1 3.801637825048954 14.454300485107595 7.3491418515560305 0 0 0
390 3 5.5906197360367695 16.234861565873455 7.377805574094737 0 0 0
391 2 5.603726241557723 14.464621347735202 9.155630708365754 0 0 0
392 1 3.7923072971036076 16.23134821829929 9.133566519269124 0 0 0
393 3 7.401985155904653 14.47528522116309 7.390347169632748 0 0 0
394 2 9.171545989279089 16.273398871837138 7.3628601396996585 0 0 0
395 2 9.153391487503676 14.46107541573409 9.158099223222699 0 0 0
396 2 7.3946366381070465 16.24057757715394 9.157679235069608 0 0 0
397 1 10.915911871748161 14.474306123515959 7.352882526610374 0 0 0
398 3 12.705559849522292 16.2550826395235 7.378702019582278 0 0 0
399 1 12.699253757732183 14.454606275372289 9.144936624504208 0 0 0
400 3 10.87185546482223 16.225897605514714 9.235524115571964 0 0 0
401 3 14.42945438336819 14.484357907576959 7.346530002359737 0 0 0
402 2 16.289830855490624 16.222170008066428 7.394351385632175 0 0 0
403 1 16.251359125630902 14.439899528193168 9.108746991758082 0 0 0
404 2 14.479683183593366 16.231719776414465 9.090875965442423 0 0 0
405 3 18.126272114763143 14.465013966961717 7.334919373433983 0 0 0
406 3 19.848702132909345 16.30038368622688 7.333164829264251 0 0 0
407 3 19.8450058740174 14.454556281234888 9.197309864507101 0 0 0
408 3 18.058066243745902 16.189238410178156 9.125933740930746 0 0 0
409 3 0.24855773235986808 18.094387775582756 7.392865653856222 0 0 0
410 3 2.032420019514739 19.844557679349514 7.350326444031401 0 0 0
411 2 2.0576059271579332 18.05186482822909 9.12585059457126 0 0 0
412 2 0.2925195543860039 19.81066710074245 9.139291930648296 0 0 0
413 3 3.8031677690914014 18.037333667897876 7.336734044240132 0 0 0
414 1 5.601964142770303 19.813147734427726 7.361278533645165 0 0 0
415 3 5.6053931992848085 17.994746872990575 9.116529901287473 0 0 0
416 3 3.7926563788625134 19.816421909880557 9.125692113161643 0 0 0
417 3 7.384006959736827 17.98653404996492 7.394545435709843 0 0 0
418 1 9.142752202944163 19.82683140736685 7.36408377761082 0 0 0
419 2 9.179071649040546 18.037469991274396 9.128270234803884 0 0 0
420 2 7.369419556802446 19.800375067984564 9.130484348780415 0 0 0
421 3 10.920573767437034 18.022675912657533 7.3865646979921635 0 0 0
422 3 12.649980150235768 19.834603166290833 7.388731781188271 0 0 0
423 1 12.700378666641617 18.012324855153867 9.158246799804964 0 0 0
424 3 10.916840743666917 19.811529303582596 9.175931621128267 0 0 0
425 2 14.45092503370209 18.05291518048563 7.373072148156454 0 0 0
426 3 16.27095535998039 19.817464644258255 7.35765639005809 0 0 0
427 1 16.273789756215695 18.024233241674693 9.131531061995766 0 0 0
428 1 14.481853127939264 19.826465371344252 9.151327523659793 0 0 0
429 1 18.048260000656228 18.040333566880157 7.375809421179505 0 0 0
430 1 19.79732088095201 19.835995701668324 7.365403004006058 0 0 0
431 3 19.828005826846077 18.080515744028673 9.17045424942597 0 0 0
432 3 18.005760474599406 19.866776258052163 9.172793730101652 0 0 0
433 1 0.27116264738385526 0.24137777025458318 10.92855599655964 0 0 0
434 2 2.0480589593422276 2.000503619606998 10.894702519772217 0 0 0
435 2 2.0500594633569613 0.19727367909516177 12.732584489891195 0 0 0
436 1 0.24831668196460843 2.0229586161218984 12.702409856384246 0 0 0
437 3 3.7929785177438937 0.2703594825255081 10.886092885879691 0 0 0
438 3 5.599617534833676 2.0962313625719133 10.910886732351763 0 0 0
439 1 5.594229194963237 0.25432326678865735 12.678421074633885 0 0 0
440 1 3.808053674442762 2.015264871292258 12.681872817658142 0 0 0
441 1 7.359999634113769 0.26372914866524233 10.920854434693345 0 0 0