ITEM: TIMESTEP
0
ITEM: NUMBER OF ATOMS
864
ITEM: BOX BOUNDS pp pp pp
0.0000000000000000e+00 2.1120000000000001e+01
0.0000000000000000e+00 2.1120000000000001e+01
0.0000000000000000e+00 2.1120000000000001e+01
ITEM: ATOMS id type x y z c_1[1] c_1[2] c_1[3] c_1[4] c_1[5] c_1[6]
1 3 3.52000000000000e-01 3.52000000000000e-01 3.52000000000000e-01 8.830e+05 -3.126e+03 1.610e+05 -1.171e+05 -3.380e+04 2.384e+05
2 2 2.11200000000000e+00 2.11200000000000e+00 3.52000000000000e-01 -5.174e+05 -5.196e+05 -3.633e+05 2.652e+05 1.216e+05 -7.341e+04
3 2 2.11200000000000e+00 3.52000000000000e-01 2.11200000000000e+00 -9.627e+05 -1.308e+06 -7.279e+05 1.981e+04 -6.681e+04 -7.511e+04
4 2 3.52000000000000e-01 2.11200000000000e+00 2.11200000000000e+00 -8.616e+04 -4.051e+05 -1.196e+05 -1.205e+05 1.420e+05 7.589e+04
5 2 3.87200000000000e+00 3.52000000000000e-01 3.52000000000000e-01 2.670e+05 -6.833e+05 -1.700e+05 -4.014e+03 2.599e+05 2.364e+05
6 2 5.63200000000000e+00 2.11200000000000e+00 3.52000000000000e-01 -3.104e+05 -4.774e+05 -3.210e+05 -7.554e+04 -1.738e+05 -9.288e+04
7 3 5.63200000000000e+00 3.52000000000000e-01 2.11200000000000e+00 -3.439e+04 -3.617e+05 -3.508e+05 9.406e+04 4.863e+05 -2.955e+05
8 3 3.87200000000000e+00 2.11200000000000e+00 2.11200000000000e+00 2.134e+05 7.145e+05 3.400e+05 1.505e+05 8.336e+04 1.274e+05
9 3 7.39200000000000e+00 3.52000000000000e-01 3.52000000000000e-01 -6.039e+04 4.887e+04 3.163e+05 -8.944e+04 -6.378e+04 1.493e+05
10 1 9.15200000000000e+00 2.11200000000000e+00 3.52000000000000e-01 -1.340e+06 -1.664e+06 -1.445e+06 -6.415e+03 7.956e+04 6.935e+04
11 2 9.15200000000000e+00 3.52000000000000e-01 2.11200000000000e+00 -2.547e+05 -6.011e+05 -5.976e+05 2.949e+05 1.635e+05 9.324e+04
12 1 7.39200000000000e+00 2.11200000000000e+00 2.11200000000000e+00 -1.522e+06 -1.407e+06 -1.457e+06 1.593e+03 1.276e+05 -9.801e+04
13 3 1.09120000000000e+01 3.52000000000000e-01 3.52000000000000e-01 1.711e+05 -3.746e+05 -5.538e+04 3.395e+05 -1.179e+05 -1.014e+05
14 3 1.26720000000000e+01 2.11200000000000e+00 3.52000000000000e-01 2.260e+05 -3.911e+05 1.919e+04 -5.844e+04 4.981e+05 -2.744e+05
15 1 1.26720000000000e+01 3.52000000000000e-01 2.11200000000000e+00 -1.632e+06 -1.685e+06 -1.617e+06 1.282e+05 1.989e+03 -1.267e+04
16 1 1.09120000000000e+01 2.11200000000000e+00 2.11200000000000e+00 -1.836e+06 -1.742e+06 -1.747e+06 8.189e+04 -1.060e+04 1.469e+04
17 1 1.44320000000000e+01 3.52000000000000e-01 3.52000000000000e-01 -2.068e+06 -2.152e+06 -2.054e+06 9.630e+04 1.809e+04 6.676e+04
18 2 1.61920000000000e+01 2.11200000000000e+00 3.52000000000000e-01 -2.895e+05 -4.266e+05 -2.748e+05 -8.934e+04 1.500e+05 8.174e+03
19 3 1.61920000000000e+01 3.52000000000000e-01 2.11200000000000e+00 5.355e+05 3.312e+05 2.877e+05 2.987e+04 -3.677e+05 -3.495e+04
20 2 1.44320000000000e+01 2.11200000000000e+00 2.11200000000000e+00 -2.227e+05 -3.776e+05 1.105e+05 -1.027e+05 2.244e+05 -2.585e+05
21 2 1.79520000000000e+01 3.52000000000000e-01 3.52000000000000e-01 -2.295e+05 -3.753e+04 -3.637e+05 2.620e+05 -6.989e+04 2.575e+05
22 2 1.97120000000000e+01 2.11200000000000e+00 3.52000000000000e-01 -6.172e+05 -6.536e+05 -6.264e+05 -1.967e+05 -2.112e+05 -4.096e+04
23 2 1.97120000000000e+01 3.52000000000000e-01 2.11200000000000e+00 -3.611e+05 -1.006e+05 -3.634e+05 -5.084e+04 1.367e+05 -1.893e+05
24 2 1.79520000000000e+01 2.11200000000000e+00 2.11200000000000e+00 -2.768e+05 -6.074e+05 -5.969e+05 8.434e+04 -1.287e+05 4.233e+04
25 1 3.52000000000000e-01 3.87200000000000e+00 3.52000000000000e-01 -1.532e+06 -1.640e+06 -1.597e+06 9.851e+04 5.499e+04 -5.616e+04
26 2 2.11200000000000e+00 5.63200000000000e+00 3.52000000000000e-01 -6.692e+05 -1.317e+05 -1.134e+05 -2.217e+05 1.279e+05 6.549e+04
27 2 2.11200000000000e+00 3.87200000000000e+00 2.11200000000000e+00 -2.945e+05 -2.594e+05 -1.635e+05 3.323e+04 -9.151e+04 -2.338e+04
28 1 3.52000000000000e-01 5.63200000000000e+00 2.11200000000000e+00 -1.963e+06 -1.970e+06 -1.984e+06 1.378e+05 6.317e+04 -7.344e+04
29 2 3.87200000000000e+00 3.87200000000000e+00 3.52000000000000e-01 -4.567e+05 -2.615e+05 -2.071e+05 1.889e+04 1.921e+05 -1.586e+05
30 1 5.63200000000000e+00 5.63200000000000e+00 3.52000000000000e-01 -1.307e+06 -1.564e+06 -1.397e+06 2.967e+04 -1.942e+05 -4.818e+04
31 2 5.63200000000000e+00 3.87200000000000e+00 2.11200000000000e+00 1.315e+05 -1.530e+05 -4.341e+05 2.982e+05 6.155e+04 3.350e+05
32 2 3.87200000000000e+00 5.63200000000000e+00 2.11200000000000e+00 2.364e+05 2.873e+04 7.112e+05 -1.778e+05 2.201e+05 1.728e+05
33 2 7.39200000000000e+00 3.87200000000000e+00 3.52000000000000e-01 -7.169e+05 -2.395e+05 -7.355e+04 2.347e+04 1.070e+05 5.615e+04
34 1 9.15200000000000e+00 5.63200000000000e+00 3.52000000000000e-01 -1.382e+06 -1.640e+06 -1.490e+06 -6.383e+04 1.721e+05 -1.490e+05
35 3 9.15200000000000e+00 3.87200000000000e+00 2.11200000000000e+00 3.347e+05 1.104e+05 1.199e+05 4.776e+05 -1.581e+04 8.944e+03
36 3 7.39200000000000e+00 5.63200000000000e+00 2.11200000000000e+00 3.717e+05 3.677e+04 -3.376e+05 4.525e+05 -2.214e+05 2.905e+05
37 2 1.09120000000000e+01 3.87200000000000e+00 3.52000000000000e-01 -2.471e+05 -7.699e+04 -7.607e+05 -8.869e+04 -1.348e+05 2.007e+04
38 3 1.26720000000000e+01 5.63200000000000e+00 3.52000000000000e-01 1.466e+05 2.074e+05 1.776e+05 -2.732e+04 -2.940e+05 1.940e+05
39 1 1.26720000000000e+01 3.87200000000000e+00 2.11200000000000e+00 -1.462e+06 -1.819e+06 -1.768e+06 -1.420e+05 -1.133e+05 1.222e+05
40 2 1.09120000000000e+01 5.63200000000000e+00 2.11200000000000e+00 -1.341e+05 -7.088e+03 1.685e+05 3.772e+05 -1.688e+05 -2.237e+05
41 3 1.44320000000000e+01 3.87200000000000e+00 3.52000000000000e-01 2.951e+05 7.277e+05 -8.269e+04 -2.300e+05 6.016e+05 -2.168e+05
42 1 1.61920000000000e+01 5.63200000000000e+00 3.52000000000000e-01 -1.534e+06 -1.582e+06 -1.557e+06 -5.795e+04 -4.795e+04 -5.796e+03
43 2 1.61920000000000e+01 3.87200000000000e+00 2.11200000000000e+00 1.219e+05 1.158e+05 -2.474e+05 1.157e+05 9.009e+04 6.169e+04
44 1 1.44320000000000e+01 5.63200000000000e+00 2.11200000000000e+00 -1.960e+06 -2.124e+06 -1.892e+06 8.231e+04 -1.735e+05 -1.581e+05
45 3 1.79520000000000e+01 3.87200000000000e+00 3.52000000000000e-01 5.618e+05 8.220e+05 6.709e+05 6.450e+04 -1.833e+05 3.554e+03
46 2 1.97120000000000e+01 5.63200000000000e+00 3.52000000000000e-01 -4.880e+05 -2.345e+05 -2.908e+05 8.566e+04 -2.734e+05 -1.587e+05
47 3 1.97120000000000e+01 3.87200000000000e+00 2.11200000000000e+00 4.877e+05 6.211e+05 2.208e+05 -3.861e+05 -2.712e+05 -1.495e+05
48 2 1.79520000000000e+01 5.63200000000000e+00 2.11200000000000e+00 -5.736e+05 -3.327e+05 -4.986e+05 -1.592e+05 -2.939e+04 1.842e+04
49 2 3.52000000000000e-01 7.39200000000000e+00 3.52000000000000e-01 1.730e+05 -5.815e+04 5.533e+04 1.566e+05 1.257e+05 1.644e+05
50 3 2.11200000000000e+00 9.15200000000000e+00 3.52000000000000e-01 5.737e+05 7.396e+05 1.159e+06 6.281e+05 6.476e+04 2.031e+05
51 2 2.11200000000000e+00 7.39200000000000e+00 2.11200000000000e+00 -4.855e+05 -2.415e+05 -3.091e+03 -1.697e+05 -1.019e+04 -7.689e+04
52 2 3.52000000000000e-01 9.15200000000000e+00 2.11200000000000e+00 -2.208e+05 -4.637e+05 -2.206e+05 6.073e+04 -8.105e+04 8.838e+04
53 1 3.87200000000000e+00 7.39200000000000e+00 3.52000000000000e-01 -1.541e+06 -1.039e+06 -1.305e+06 9.587e+04 -8.904e+04 -4.444e+04
54 1 5.63200000000000e+00 9.15200000000000e+00 3.52000000000000e-01 -8.912e+05 -1.495e+06 -1.376e+06 -2.779e+05 -1.718e+05 -7.805e+04
55 1 5.63200000000000e+00 7.39200000000000e+00 2.11200000000000e+00 -1.314e+06 -1.442e+06 -1.573e+06 2.151e+05 -7.910e+04 1.468e+04
56 1 3.87200000000000e+00 9.15200000000000e+00 2.11200000000000e+00 -1.424e+06 -1.486e+06 -1.096e+06 2.091e+04 8.578e+04 4.588e+03
57 1 7.39200000000000e+00 7.39200000000000e+00 3.52000000000000e-01 -1.434e+06 -1.060e+06 -9.608e+05 -7.761e+04 -1.386e+05 4.660e+04
58 1 9.15200000000000e+00 9.15200000000000e+00 3.52000000000000e-01 -1.346e+06 -1.712e+06 -1.244e+06 4.662e+04 5.667e+04 1.905e+03
59 1 9.15200000000000e+00 7.39200000000000e+00 2.11200000000000e+00 -1.706e+06 -1.545e+06 -1.809e+06 -2.487e+05 1.057e+05 3.583e+04
60 2 7.39200000000000e+00 9.15200000000000e+00 2.11200000000000e+00 -1.978e+05 3.954e+05 -3.579e+05 3.207e+05 5.826e+04 -3.156e+05
61 3 1.09120000000000e+01 7.39200000000000e+00 3.52000000000000e-01 -2.717e+05 2.937e+05 6.333e+04 -9.645e+04 -2.069e+05 -2.423e+05
62 3 1.26720000000000e+01 9.15200000000000e+00 3.52000000000000e-01 -1.246e+05 1.497e+05 -1.215e+05 -1.733e+05 1.613e+05 -1.234e+04
63 1 1.26720000000000e+01 7.39200000000000e+00 2.11200000000000e+00 -1.603e+06 -1.820e+06 -1.604e+06 6.063e+04 -1.993e+05 -8.850e+04
64 3 1.09120000000000e+01 9.15200000000000e+00 2.11200000000000e+00 -2.310e+05 -1.392e+05 2.818e+05 -4.477e+04 -2.190e+05 -1.290e+05
65 2 1.44320000000000e+01 7.39200000000000e+00 3.52000000000000e-01 4.673e+05 -3.903e+05 -6.704e+05 -3.741e+04 4.749e+05 -1.086e+05
66 1 1.61920000000000e+01 9.15200000000000e+00 3.52000000000000e-01 -1.739e+06 -1.833e+06 -1.846e+06 -1.373e+04 6.421e+04 -8.664e+03
67 3 1.61920000000000e+01 7.39200000000000e+00 2.11200000000000e+00 1.241e+05 -8.439e+04 2.655e+05 -3.445e+05 5.049e+05 -5.447e+04
68 1 1.44320000000000e+01 9.15200000000000e+00 2.11200000000000e+00 -2.078e+06 -2.056e+06 -1.972e+06 -7.510e+04 -8.323e+04 4.380e+04
69 3 1.79520000000000e+01 7.39200000000000e+00 3.52000000000000e-01 4.854e+05 -1.135e+04 4.840e+05 2.739e+05 -1.116e+05 1.530e+05
70 2 1.97120000000000e+01 9.15200000000000e+00 3.52000000000000e-01 -2.295e+04 -6.515e+05 -1.388e+05 5.033e+04 -2.566e+05 1.809e+04
71 1 1.97120000000000e+01 7.39200000000000e+00 2.11200000000000e+00 -1.634e+06 -1.616e+06 -1.478e+06 6.942e+03 1.238e+05 -3.500e+04
72 3 1.79520000000000e+01 9.15200000000000e+00 2.11200000000000e+00 -1.974e+05 -2.714e+05 -2.929e+04 -3.938e+05 -4.162e+05 3.603e+04
73 1 3.52000000000000e-01 1.09120000000000e+01 3.52000000000000e-01 -1.458e+06 -1.414e+06 -1.594e+06 6.167e+04 3.258e+05 -1.412e+05
74 2 2.11200000000000e+00 1.26720000000000e+01 3.52000000000000e-01 -1.514e+05 -5.747e+04 -5.659e+05 -3.405e+05 1.440e+05 5.354e+04
75 2 2.11200000000000e+00 1.09120000000000e+01 2.11200000000000e+00 -4.851e+05 -4.562e+05 1.256e+05 1.046e+05 -3.110e+05 -5.454e+04
76 1 3.52000000000000e-01 1.26720000000000e+01 2.11200000000000e+00 -1.744e+06 -1.807e+06 -1.570e+06 -9.580e+04 -4.270e+04 -1.292e+05
77 3 3.87200000000000e+00 1.09120000000000e+01 3.52000000000000e-01 2.751e+05 9.120e+05 9.149e+05 1.944e+05 -3.382e+05 1.072e+05
78 3 5.63200000000000e+00 1.26720000000000e+01 3.52000000000000e-01 1.885e+05 -2.090e+05 -6.015e+04 -4.083e+04 2.551e+05 2.699e+05
79 1 5.63200000000000e+00 1.09120000000000e+01 2.11200000000000e+00 -1.283e+06 -1.229e+06 -1.406e+06 -5.615e+04 4.654e+04 6.529e+04
80 1 3.87200000000000e+00 1.26720000000000e+01 2.11200000000000e+00 -1.498e+06 -1.638e+06 -1.482e+06 -4.803e+04 6.972e+04 -4.268e+04
81 1 7.39200000000000e+00 1.09120000000000e+01 3.52000000000000e-01 -1.294e+06 -1.211e+06 -1.300e+06 7.274e+04 -6.346e+04 -3.339e+04
82 2 9.15200000000000e+00 1.26720000000000e+01 3.52000000000000e-01 -1.642e+05 -6.513e+05 -2.178e+05 4.358e+04 1.005e+05 2.541e+04
83 3 9.15200000000000e+00 1.09120000000000e+01 2.11200000000000e+00 1.014e+05 3.256e+04 -3.470e+05 -7.298e+04 -6.387e+03 -5.333e+05
84 3 7.39200000000000e+00 1.26720000000000e+01 2.11200000000000e+00 2.295e+04 -2.026e+05 -9.806e+05 -5.096e+05 -2.592e+05 -1.524e+05
85 2 1.09120000000000e+01 1.09120000000000e+01 3.52000000000000e-01 -5.215e+05 -1.129e+05 2.321e+05 -2.480e+05 -4.293e+05 1.962e+05
86 1 1.26720000000000e+01 1.26720000000000e+01 3.52000000000000e-01 -1.434e+06 -1.374e+06 -1.582e+06 9.756e+04 1.633e+05 2.983e+05
87 1 1.26720000000000e+01 1.09120000000000e+01 2.11200000000000e+00 -2.318e+06 -2.422e+06 -2.331e+06 7.316e+04 1.948e+05 -6.685e+04
88 3 1.09120000000000e+01 1.26720000000000e+01 2.11200000000000e+00 -4.686e+05 7.226e+04 -2.300e+05 2.202e+05 6.243e+05 6.453e+04
89 1 1.44320000000000e+01 1.09120000000000e+01 3.52000000000000e-01 -2.204e+06 -1.954e+06 -2.035e+06 -3.502e+04 2.456e+04 1.928e+04
90 3 1.61920000000000e+01 1.26720000000000e+01 3.52000000000000e-01 1.317e+05 -2.912e+05 4.759e+05 3.298e+04 -1.466e+05 4.432e+04
91 3 1.61920000000000e+01 1.09120000000000e+01 2.11200000000000e+00 -5.804e+05 -5.679e+05 -2.759e+05 -1.869e+04 -8.231e+04 -2.229e+05
92 3 1.44320000000000e+01 1.26720000000000e+01 2.11200000000000e+00 1.240e+05 3.583e+05 1.692e+05 -1.512e+05 -1.718e+05 -3.852e+05
93 1 1.79520000000000e+01 1.09120000000000e+01 3.52000000000000e-01 -1.803e+06 -1.859e+06 -1.920e+06 -1.299e+05 -3.543e+04 -4.542e+04
94 1 1.97120000000000e+01 1.26720000000000e+01 3.52000000000000e-01 -1.547e+06 -1.604e+06 -1.616e+06 -6.522e+02 -1.070e+05 1.038e+05
95 1 1.97120000000000e+01 1.09120000000000e+01 2.11200000000000e+00 -2.028e+06 -1.921e+06 -1.956e+06 -8.519e+04 -7.888e+04 9.273e+04
96 3 1.79520000000000e+01 1.26720000000000e+01 2.11200000000000e+00 -6.074e+05 -5.250e+05 -1.950e+05 2.145e+05 -2.508e+05 -3.893e+05
97 3 3.52000000000000e-01 1.44320000000000e+01 3.52000000000000e-01 1.075e+06 1.499e+05 6.166e+05 -1.081e+05 2.641e+05 4.729e+05
98 2 2.11200000000000e+00 1.61920000000000e+01 3.52000000000000e-01 -2.522e+05 -5.838e+05 -2.762e+05 9.283e+04 -1.117e+05 -2.260e+05
99 2 2.11200000000000e+00 1.44320000000000e+01 2.11200000000000e+00 -1.295e+05 -7.849e+05 -4.700e+05 4.419e+04 5.180e+04 1.448e+05
100 2 3.52000000000000e-01 1.61920000000000e+01 2.11200000000000e+00 1.217e+05 -3.324e+05 -2.596e+05 8.572e+03 -2.328e+04 -8.089e+04
101 2 3.87200000000000e+00 1.44320000000000e+01 3.52000000000000e-01 -2.151e+05 -8.095e+04 -1.306e+05 -5.957e+04 2.058e+05 7.003e+04
102 3 5.63200000000000e+00 1.61920000000000e+01 3.52000000000000e-01 -1.060e+06 -1.022e+06 -9.643e+05 2.733e+05 -9.803e+04 -1.214e+05
103 3 5.63200000000000e+00 1.44320000000000e+01 2.11200000000000e+00 -9.781e+05 -8.665e+05 -9.024e+05 -5.573e+04 1.043e+05 -1.575e+03
104 3 3.87200000000000e+00 1.61920000000000e+01 2.11200000000000e+00 -4.380e+05 -6.189e+05 -5.834e+05 1.499e+04 6.697e+04 6.460e+05
105 1 7.39200000000000e+00 1.44320000000000e+01 3.52000000000000e-01 -2.347e+06 -2.135e+06 -2.525e+06 6.282e+04 -3.895e+04 1.205e+05
106 2 9.15200000000000e+00 1.61920000000000e+01 3.52000000000000e-01 -7.615e+04 -4.730e+05 -4.909e+05 -3.404e+05 1.984e+05 -9.506e+04
107 3 9.15200000000000e+00 1.44320000000000e+01 2.11200000000000e+00 1.137e+05 5.327e+05 -3.591e+05 9.233e+02 1.196e+05 3.051e+05
108 1 7.39200000000000e+00 1.61920000000000e+01 2.11200000000000e+00 -1.933e+06 -1.962e+06 -1.985e+06 1.316e+05 -9.405e+04 -1.534e+04
109 2 1.09120000000000e+01 1.44320000000000e+01 3.52000000000000e-01 -5.112e+05 -3.361e+05 4.397e+05 1.545e+05 -1.622e+05 -2.234e+05
110 2 1.26720000000000e+01 1.61920000000000e+01 3.52000000000000e-01 -5.726e+05 -3.212e+05 -2.290e+05 7.166e+04 1.218e+05 2.323e+04
111 2 1.26720000000000e+01 1.44320000000000e+01 2.11200000000000e+00 -1.823e+05 -6.487e+05 -7.865e+05 -5.490e+04 -7.533e+04 -1.671e+05
112 2 1.09120000000000e+01 1.61920000000000e+01 2.11200000000000e+00 -2.972e+05 -1.943e+05 -2.287e+05 1.368e+05 -5.512e+04 -1.829e+04
113 2 1.44320000000000e+01 1.44320000000000e+01 3.52000000000000e-01 -6.378e+05 -4.006e+05 -4.693e+05 -3.748e+05 -4.586e+04 1.293e+05
114 2 1.61920000000000e+01 1.61920000000000e+01 3.52000000000000e-01 -4.317e+05 1.359e+04 -8.624e+05 8.261e+04 7.556e+04 1.903e+04
115 1 1.61920000000000e+01 1.44320000000000e+01 2.11200000000000e+00 -1.533e+06 -1.679e+06 -1.503e+06 -8.508e+04 -8.427e+04 7.966e+04
116 2 1.44320000000000e+01 1.61920000000000e+01 2.11200000000000e+00 1.727e+05 3.244e+05 -5.400e+05 9.015e+04 -1.296e+04 -1.452e+05
117 2 1.79520000000000e+01 1.44320000000000e+01 3.52000000000000e-01 -3.786e+05 -3.845e+05 -5.060e+05 1.049e+05 -3.739e+04 2.402e+05
118 1 1.97120000000000e+01 1.61920000000000e+01 3.52000000000000e-01 -1.801e+06 -1.929e+06 -1.821e+06 1.503e+05 -5.988e+04 3.751e+04
119 3 1.97120000000000e+01 1.44320000000000e+01 2.11200000000000e+00 8.295e+04 -3.134e+05 -4.693e+05 3.074e+05 2.584e+05 1.937e+05
120 3 1.79520000000000e+01 1.61920000000000e+01 2.11200000000000e+00 -1.331e+04 -2.898e+05 -5.761e+05 -2.934e+05 6.426e+05 7.030e+03
121 2 3.52000000000000e-01 1.79520000000000e+01 3.52000000000000e-01 -3.299e+05 -1.495e+05 -3.957e+05 4.120e+04 -4.388e+05 -9.000e+04
122 2 2.11200000000000e+00 1.97120000000000e+01 3.52000000000000e-01 -1.061e+06 -2.292e+05 -1.844e+05 -4.468e+04 -1.423e+05 1.013e+05
123 2 2.11200000000000e+00 1.79520000000000e+01 2.11200000000000e+00 -7.103e+05 -5.415e+05 -3.513e+05 -1.442e+05 2.157e+05 6.169e+04
124 1 3.52000000000000e-01 1.97120000000000e+01 2.11200000000000e+00 -2.133e+06 -2.116e+06 -2.135e+06 -1.726e+05 -1.624e+05 2.474e+05
125 1 3.87200000000000e+00 1.79520000000000e+01 3.52000000000000e-01 -2.336e+06 -2.331e+06 -2.427e+06 -5.198e+04 1.637e+03 -4.392e+04
126 1 5.63200000000000e+00 1.97120000000000e+01 3.52000000000000e-01 -2.352e+06 -2.412e+06 -2.538e+06 -3.944e+03 3.048e+04 6.016e+04
127 3 5.63200000000000e+00 1.79520000000000e+01 2.11200000000000e+00 -5.360e+05 -1.338e+06 -6.622e+05 -6.390e+04 -1.879e+05 2.804e+04
128 1 3.87200000000000e+00 1.97120000000000e+01 2.11200000000000e+00 -2.070e+06 -2.048e+06 -2.132e+06 1.124e+05 1.242e+05 -6.111e+04
129 3 7.39200000000000e+00 1.79520000000000e+01 3.52000000000000e-01 -8.511e+05 -8.245e+05 -5.629e+05 6.900e+04 3.861e+05 3.575e+04
130 1 9.15200000000000e+00 1.97120000000000e+01 3.52000000000000e-01 -2.216e+06 -1.887e+06 -1.847e+06 -1.991e+05 9.390e+03 -4.938e+04
131 2 9.15200000000000e+00 1.79520000000000e+01 2.11200000000000e+00 9.815e+04 -2.774e+05 -3.948e+05 -3.925e+05 1.407e+05 5.280e+04
132 3 7.39200000000000e+00 1.97120000000000e+01 2.11200000000000e+00 -4.114e+05 1.399e+05 -3.027e+05 4.658e+04 -3.723e+05 2.285e+05
133 1 1.09120000000000e+01 1.79520000000000e+01 3.52000000000000e-01 -1.452e+06 -1.585e+06 -1.559e+06 5.135e+04 -1.827e+05 -1.159e+05
134 1 1.26720000000000e+01 1.97120000000000e+01 3.52000000000000e-01 -1.667e+06 -1.575e+06 -1.595e+06 -7.776e+04 1.718e+05 2.344e+04
135 3 1.26720000000000e+01 1.79520000000000e+01 2.11200000000000e+00 5.405e+05 9.275e+05 3.404e+05 3.501e+05 -4.795e+05 8.686e+04
136 1 1.09120000000000e+01 1.97120000000000e+01 2.11200000000000e+00 -1.627e+06 -1.566e+06 -1.961e+06 -5.839e+04 -1.536e+05 1.299e+05
137 2 1.44320000000000e+01 1.79520000000000e+01 3.52000000000000e-01 -1.961e+05 -1.065e+06 -4.385e+05 2.272e+05 -5.153e+03 1.657e+04
138 3 1.61920000000000e+01 1.97120000000000e+01 3.52000000000000e-01 -6.237e+05 -3.047e+05 -7.892e+05 1.919e+05 1.592e+05 -3.403e+05
139 3 1.61920000000000e+01 1.79520000000000e+01 2.11200000000000e+00 -3.731e+05 -5.335e+05 -7.604e+05 5.359e+04 1.412e+05 1.990e+05
140 3 1.44320000000000e+01 1.97120000000000e+01 2.11200000000000e+00 -7.512e+05 -1.058e+04 -1.853e+05 -3.487e+05 -1.106e+05 3.969e+05
141 3 1.79520000000000e+01 1.79520000000000e+01 3.52000000000000e-01 -8.621e+05 -6.743e+05 -1.035e+06 1.236e+04 9.708e+04 -3.242e+04
142 1 1.97120000000000e+01 1.97120000000000e+01 3.52000000000000e-01 -2.035e+06 -1.563e+06 -1.924e+06 -2.029e+05 -3.422e+04 3.058e+04
143 3 1.97120000000000e+01 1.79520000000000e+01 2.11200000000000e+00 1.586e+05 -2.953e+05 -2.490e+05 -3.567e+05 7.497e+03 -3.301e+05
144 1 1.79520000000000e+01 1.97120000000000e+01 2.11200000000000e+00 -1.985e+06 -1.899e+06 -1.853e+06 2.524e+04 -2.963e+04 -5.421e+04
145 3 3.52000000000000e-01 3.52000000000000e-01 3.87200000000000e+00 1.666e+05 2.309e+05 -2.014e+04 -2.250e+05 -2.596e+04 -3.853e+05
146 3 2.11200000000000e+00 2.11200000000000e+00 3.87200000000000e+00 3.423e+05 2.279e+05 4.857e+05 3.770e+05 -6.072e+04 3.373e+04
147 1 2.11200000000000e+00 3.52000000000000e-01 5.63200000000000e+00 -1.974e+06 -1.940e+06 -1.900e+06 1.407e+05 1.282e+05 9.165e+04
148 2 3.52000000000000e-01 2.11200000000000e+00 5.63200000000000e+00 -3.350e+05 -7.798e+05 -3.539e+05 -9.761e+04 -9.261e+04 2.890e+05
149 3 3.87200000000000e+00 3.52000000000000e-01 3.87200000000000e+00 -8.762e+05 -7.679e+05 -4.283e+05 3.848e+04 2.328e+05 -3.013e+04
150 1 5.63200000000000e+00 2.11200000000000e+00 3.87200000000000e+00 -2.019e+06 -1.954e+06 -2.103e+06 -1.976e+05 -5.694e+04 -2.220e+05
151 2 5.63200000000000e+00 3.52000000000000e-01 5.63200000000000e+00 -7.412e+05 -1.335e+06 -6.436e+05 1.626e+05 2.006e+05 1.913e+05
152 1 3.87200000000000e+00 2.11200000000000e+00 5.63200000000000e+00 -1.653e+06 -1.718e+06 -1.598e+06 -3.314e+05 1.116e+04 -1.187e+05
153 2 7.39200000000000e+00 3.52000000000000e-01 3.87200000000000e+00 -6.861e+04 -5.343e+05 1.041e+05 2.918e+05 1.195e+05 1.885e+05
154 2 9.15200000000000e+00 2.11200000000000e+00 3.87200000000000e+00 -6.037e+05 1.869e+05 5.956e+04 -2.136e+05 1.610e+04 -5.304e+04
155 2 9.15200000000000e+00 3.52000000000000e-01 5.63200000000000e+00 -3.380e+05 -3.193e+05 -1.628e+05 7.147e+03 -2.754e+05 8.693e+04
156 1 7.39200000000000e+00 2.11200000000000e+00 5.63200000000000e+00 -1.960e+06 -1.911e+06 -1.955e+06 -1.115e+03 -1.468e+05 -9.992e+04
157 3 1.09120000000000e+01 3.52000000000000e-01 3.87200000000000e+00 8.921e+05 -4.990e+05 2.217e+05 -5.306e+05 1.891e+05 -1.624e+05
158 1 1.26720000000000e+01 2.11200000000000e+00 3.87200000000000e+00 -1.668e+06 -1.625e+06 -1.798e+06 2.610e+04 -8.999e+03 1.614e+05
159 3 1.26720000000000e+01 3.52000000000000e-01 5.63200000000000e+00 4.608e+04 -8.872e+05 -5.498e+05 -7.917e+04 -4.823e+05 -6.484e+04
160 1 1.09120000000000e+01 2.11200000000000e+00 5.63200000000000e+00 -1.696e+06 -1.487e+06 -1.391e+06 2.780e+05 -1.009e+05 1.840e+04
161 2 1.44320000000000e+01 3.52000000000000e-01 3.87200000000000e+00 -5.713e+05 -5.421e+05 -3.287e+05 2.828e+05 -1.889e+05 1.614e+04
162 3 1.61920000000000e+01 2.11200000000000e+00 3.87200000000000e+00 5.536e+05 6.194e+05 5.807e+05 6.335e+05 -3.526e+04 -4.798e+05
163 2 1.61920000000000e+01 3.52000000000000e-01 5.63200000000000e+00 -1.830e+05 -4.827e+05 -3.451e+05 -1.157e+05 1.130e+05 -2.604e+05
164 3 1.44320000000000e+01 2.11200000000000e+00 5.63200000000000e+00 -6.250e+05 1.334e+05 -5.364e+04 -5.199e+04 -1.085e+05 3.804e+05
165 1 1.79520000000000e+01 3.52000000000000e-01 3.87200000000000e+00 -1.711e+06 -1.742e+06 -1.868e+06 -1.165e+05 6.372e+03 -2.021e+05
166 2 1.97120000000000e+01 2.11200000000000e+00 3.87200000000000e+00 -1.147e+05 1.142e+05 -1.433e+05 -3.461e+05 8.876e+04 6.786e+04
167 1 1.97120000000000e+01 3.52000000000000e-01 5.63200000000000e+00 -1.775e+06 -1.859e+06 -1.936e+06 1.305e+05 -8.290e+04 2.349e+04
168 1 1.79520000000000e+01 2.11200000000000e+00 5.63200000000000e+00 -1.853e+06 -1.955e+06 -1.894e+06 -1.528e+04 2.211e+04 7.906e+04
169 1 3.52000000000000e-01 3.87200000000000e+00 3.87200000000000e+00 -1.883e+06 -1.674e+06 -1.923e+06 1.722e+05 -3.618e+04 -1.275e+05
170 2 2.11200000000000e+00 5.63200000000000e+00 3.87200000000000e+00 8.861e+04 -1.260e+05 -4.941e+05 -2.159e+05 4.949e+04 1.813e+03
171 2 2.11200000000000e+00 3.87200000000000e+00 5.63200000000000e+00 -4.292e+05 -5.360e+05 -2.120e+05 3.869e+05 1.227e+05 1.915e+04
172 1 3.52000000000000e-01 5.63200000000000e+00 5.63200000000000e+00 -1.594e+06 -1.711e+06 -1.672e+06 -9.873e+03 -1.505e+04 1.177e+04
173 2 3.87200000000000e+00 3.87200000000000e+00 3.87200000000000e+00 -7.128e+05 -4.889e+05 -6.025e+05 2.560e+05 -1.072e+05 2.082e+05
174 3 5.63200000000000e+00 5.63200000000000e+00 3.87200000000000e+00 4.076e+05 -6.145e+05 -3.135e+05 2.095e+05 4.317e+05 5.007e+05
175 1 5.63200000000000e+00 3.87200000000000e+00 5.63200000000000e+00 -2.644e+06 -2.422e+06 -2.607e+06 3.406e+04 1.376e+05 -1.873e+05
176 3 3.87200000000000e+00 5.63200000000000e+00 5.63200000000000e+00 -1.571e+05 9.947e+04 8.169e+05 -2.564e+04 1.481e+04 4.184e+05
177 3 7.39200000000000e+00 3.87200000000000e+00 3.87200000000000e+00 -2.722e+05 -3.230e+05 -4.879e+05 -2.532e+05 6.599e+04 1.528e+05
178 1 9.15200000000000e+00 5.63200000000000e+00 3.87200000000000e+00 -1.698e+06 -1.649e+06 -1.898e+06 -1.894e+05 1.151e+05 9.459e+04
179 3 9.15200000000000e+00 3.87200000000000e+00 5.63200000000000e+00 -6.145e+05 -1.323e+05 -2.131e+05 -1.801e+05 -4.777e+05 8.881e+04
180 3 7.39200000000000e+00 5.63200000000000e+00 5.63200000000000e+00 -1.464e+06 -1.062e+06 -8.873e+05 1.755e+05 -5.632e+04 1.655e+05
181 2 1.09120000000000e+01 3.87200000000000e+00 3.87200000000000e+00 -9.577e+04 -4.510e+05 -4.016e+05 2.456e+05 8.885e+03 -5.527e+04
182 2 1.26720000000000e+01 5.63200000000000e+00 3.87200000000000e+00 -1.944e+05 -1.623e+05 -2.603e+04 -8.113e+04 2.550e+05 3.251e+05
183 1 1.26720000000000e+01 3.87200000000000e+00 5.63200000000000e+00 -1.240e+06 -1.140e+06 -1.176e+06 -2.483e+03 2.617e+05 -1.596e+05
184 1 1.09120000000000e+01 5.63200000000000e+00 5.63200000000000e+00 -1.882e+06 -1.803e+06 -1.687e+06 -1.396e+05 -2.832e+05 5.138e+03
185 1 1.44320000000000e+01 3.87200000000000e+00 3.87200000000000e+00 -1.313e+06 -1.414e+06 -1.423e+06 -7.227e+04 -6.778e+04 1.325e+05
186 3 1.61920000000000e+01 5.63200000000000e+00 3.87200000000000e+00 4.698e+05 3.410e+05 2.585e+05 -7.179e+04 -1.956e+05 5.240e+05
187 1 1.61920000000000e+01 3.87200000000000e+00 5.63200000000000e+00 -2.004e+06 -1.871e+06 -1.934e+06 -3.527e+04 1.089e+04 7.249e+04
188 2 1.44320000000000e+01 5.63200000000000e+00 5.63200000000000e+00 -3.821e+05 3.557e+05 -4.910e+05 -1.135e+05 -1.232e+05 -2.363e+05
189 2 1.79520000000000e+01 3.87200000000000e+00 3.87200000000000e+00 -3.889e+05 -6.613e+05 -2.541e+05 -2.232e+04 8.624e+04 1.056e+05
190 3 1.97120000000000e+01 5.63200000000000e+00 3.87200000000000e+00 1.254e+05 6.775e+05 1.109e+04 5.835e+04 2.250e+05 -9.274e+02
191 3 1.97120000000000e+01 3.87200000000000e+00 5.63200000000000e+00 -1.478e+03 3.623e+04 2.328e+05 -3.189e+05 1.889e+05 3.097e+05
192 2 1.79520000000000e+01 5.63200000000000e+00 5.63200000000000e+00 -2.497e+05 -2.688e+05 -3.691e+05 -1.705e+05 1.931e+05 -2.081e+05
193 3 3.52000000000000e-01 7.39200000000000e+00 3.87200000000000e+00 1.246e+06 3.561e+05 3.451e+05 -6.041e+04 7.436e+04 -1.028e+04
194 2 2.11200000000000e+00 9.15200000000000e+00 3.87200000000000e+00 -3.434e+05 1.162e+05 4.074e+05 5.541e+04 -1.599e+04 1.716e+05
195 2 2.11200000000000e+00 7.39200000000000e+00 5.63200000000000e+00 -4.312e+05 -2.132e+05 -6.126e+05 -1.510e+05 1.282e+05 7.140e+04
196 2 3.52000000000000e-01 9.15200000000000e+00 5.63200000000000e+00 -4.465e+05 -4.914e+05 -7.115e+05 4.397e+04 1.329e+05 1.343e+04
197 2 3.87200000000000e+00 7.39200000000000e+00 3.87200000000000e+00 1.582e+05 -3.629e+05 -5.685e+05 -2.519e+05 -5.879e+04 -5.963e+04
198 1 5.63200000000000e+00 9.15200000000000e+00 3.87200000000000e+00 -1.216e+06 -1.414e+06 -1.571e+06 -6.005e+04 4.813e+04 2.114e+05
199 1 5.63200000000000e+00 7.39200000000000e+00 5.63200000000000e+00 -1.922e+06 -2.301e+06 -2.090e+06 2.059e+05 8.598e+04 -8.472e+04
200 2 3.87200000000000e+00 9.15200000000000e+00 5.63200000000000e+00 -4.075e+05 -1.775e+05 -3.235e+05 -4.991e+04 3.742e+04 1.915e+05
201 3 7.39200000000000e+00 7.39200000000000e+00 3.87200000000000e+00 1.605e+05 4.095e+05 1.989e+05 5.996e+05 -3.768e+03 -8.105e+04
202 2 9.15200000000000e+00 9.15200000000000e+00 3.87200000000000e+00 7.659e+04 -5.840e+05 -4.670e+05 2.603e+05 -6.039e+04 -2.841e+05
203 2 9.15200000000000e+00 7.39200000000000e+00 5.63200000000000e+00 -6.469e+04 -3.637e+05 -6.089e+05 1.475e+05 7.718e+04 -1.185e+05
204 2 7.39200000000000e+00 9.15200000000000e+00 5.63200000000000e+00 -9.442e+05 -5.523e+05 -2.520e+05 -5.503e+04 -1.269e+05 2.392e+05
205 2 1.09120000000000e+01 7.39200000000000e+00 3.87200000000000e+00 -1.515e+05 -1.711e+04 1.677e+03 -7.583e+04 2.296e+05 -5.369e+04
206 3 1.26720000000000e+01 9.15200000000000e+00 3.87200000000000e+00 -1.600e+05 -2.703e+05 -4.735e+05 3.081e+05 5.616e+04 2.546e+05
207 3 1.26720000000000e+01 7.39200000000000e+00 5.63200000000000e+00 1.246e+05 -6.125e+03 -2.531e+05 -6.249e+04 4.448e+05 1.658e+05
208 2 1.09120000000000e+01 9.15200000000000e+00 5.63200000000000e+00 -6.099e+05 -9.786e+05 -6.391e+05 8.003e+04 1.690e+05 -5.453e+04
209 1 1.44320000000000e+01 7.39200000000000e+00 3.87200000000000e+00 -2.198e+06 -2.009e+06 -2.223e+06 9.530e+04 1.227e+05 -2.150e+05
210 2 1.61920000000000e+01 9.15200000000000e+00 3.87200000000000e+00 -9.979e+05 -4.929e+05 -7.353e+05 -1.301e+05 -1.592e+05 6.470e+04
211 2 1.61920000000000e+01 7.39200000000000e+00 5.63200000000000e+00 -2.194e+04 -2.825e+05 -4.813e+05 9.677e+04 -1.458e+05 1.687e+05
212 3 1.44320000000000e+01 9.15200000000000e+00 5.63200000000000e+00 9.818e+04 -3.588e+04 -2.492e+04 -1.067e+05 -3.252e+05 -3.736e+05
213 2 1.79520000000000e+01 7.39200000000000e+00 3.87200000000000e+00 -3.035e+05 -3.164e+04 -2.683e+05 -2.824e+04 8.548e+04 4.910e+04
214 2 1.97120000000000e+01 9.15200000000000e+00 3.87200000000000e+00 -2.609e+05 -6.018e+05 -7.871e+05 8.717e+04 1.396e+05 -6.271e+04
215 2 1.97120000000000e+01 7.39200000000000e+00 5.63200000000000e+00 -3.838e+05 -1.923e+05 -1.305e+05 1.400e+05 -5.838e+04 1.422e+04
216 3 1.79520000000000e+01 9.15200000000000e+00 5.63200000000000e+00 6.713e+05 5.550e+05 3.883e+05 -3.614e+05 -9.069e+04 -1.032e+05
217 3 3.52000000000000e-01 1.09120000000000e+01 3.87200000000000e+00 3.739e+05 3.666e+05 -1.343e+05 -5.298e+04 1.240e+04 -8.281e+04
218 1 2.11200000000000e+00 1.26720000000000e+01 3.87200000000000e+00 -1.756e+06 -1.730e+06 -1.922e+06 -6.184e+04 2.294e+05 9.939e+04
219 3 2.11200000000000e+00 1.09120000000000e+01 5.63200000000000e+00 -2.196e+05 8.821e+04 6.100e+03 -1.014e+05 -3.147e+04 2.890e+05
220 1 3.52000000000000e-01 1.26720000000000e+01 5.63200000000000e+00 -2.352e+06 -2.177e+06 -2.135e+06 2.796e+04 -1.138e+05 1.345e+04
221 2 3.87200000000000e+00 1.09120000000000e+01 3.87200000000000e+00 1.037e+05 -3.345e+05 2.089e+05 4.775e+05 -1.538e+05 6.846e+04
222 3 5.63200000000000e+00 1.26720000000000e+01 3.87200000000000e+00 1.463e+04 -1.091e+05 9.497e+04 -3.039e+04 -4.490e+05 -4.757e+05
223 1 5.63200000000000e+00 1.09120000000000e+01 5.63200000000000e+00 -1.269e+06 -1.404e+06 -1.517e+06 -6.779e+04 1.178e+05 2.222e+04
224 2 3.87200000000000e+00 1.26720000000000e+01 5.63200000000000e+00 -9.622e+05 -4.461e+05 -5.987e+05 3.124e+05 -1.836e+05 -1.802e+05