LAMMPS (27 May 2021)
Reading data file ...
  orthogonal box = (-0.10757617 -0.10757617 -0.10757617) to (21.227576 21.227576 21.227576)
  1 by 1 by 3 MPI processor grid
  reading atoms ...
  864 atoms
  reading velocities ...
  864 velocities
  read_data CPU = 0.008 seconds
0 atoms in group upp
0 atoms in group downn
WARNING: No fixes defined, atoms won't move (../verlet.cpp:55)
Neighbor list info ...
  update every 1 steps, delay 0 steps, check yes
  max neighbors/atom: 2000, page size: 100000
  master list distance cutoff = 6.88
  ghost atom cutoff = 6.88
  1 neighbor lists, perpetual/occasional/extra = 1 0 0
  (1) pair eam/alloy, perpetual
      attributes: half, newton on
      pair build: half/nsq/newton
      stencil: none
      bin: none
Per MPI rank memory allocation (min/avg/max) = 4.148 | 4.148 | 4.148 Mbytes
Step Temp PotEng Press Pxy Xy Volume 
       0            0   -3732.1141  0.012229704    429.32771            0    9711.5208 
Loop time of 1.783e-05 on 3 procs for 0 steps with 864 atoms

59.8% CPU use with 3 MPI tasks x no OpenMP threads

MPI task timing breakdown:
Section |  min time  |  avg time  |  max time  |%varavg| %total
---------------------------------------------------------------
Pair    | 0          | 0          | 0          |   0.0 |  0.00
Neigh   | 0          | 0          | 0          |   0.0 |  0.00
Comm    | 0          | 0          | 0          |   0.0 |  0.00
Output  | 0          | 0          | 0          |   0.0 |  0.00
Modify  | 0          | 0          | 0          |   0.0 |  0.00
Other   |            | 1.783e-05  |            |       |100.00

Nlocal:        288.000 ave         288 max         288 min
Histogram: 3 0 0 0 0 0 0 0 0 0
Nghost:        2112.00 ave        2112 max        2112 min
Histogram: 3 0 0 0 0 0 0 0 0 0
Neighs:        19296.0 ave       19728 max       18864 min
Histogram: 1 0 0 0 0 1 0 0 0 1

Total # of neighbors = 57888
Ave neighs/atom = 67.000000
Neighbor list builds = 0
Dangerous builds = 0
Per MPI rank memory allocation (min/avg/max) = 6.172 | 6.172 | 6.172 Mbytes
Step Temp PotEng Press Pxy Xy Volume 
       0          500   -3732.1141    6134.4857    203.45132            0    9711.5208 
    1000    295.12851   -3699.4943    13928.805    1272.8958            0    9749.1947 
    2000    344.26718   -3694.0264    8930.9431    1314.3418            0    9789.2098 
    3000    380.01884   -3687.6134    6033.3975    1039.9103            0    9819.6633 
    4000    430.57037   -3684.1947    4594.5439     1342.958            0    9846.7657 
    5000    455.82504   -3679.8604    3048.7633    -1482.412            0    9862.1144 
    6000    479.39349   -3677.4632    3745.5703   -321.26973            0    9872.4876 
    7000    483.97462   -3675.2264    929.52299    1077.9326            0    9882.6601 
    8000    492.66991   -3675.2708   -78.388736    1049.9069            0    9888.1914 
    9000     522.7606   -3678.5884   -908.37411   -247.64036            0    9891.6262 
   10000    485.80049   -3674.5153    2098.4352   -497.40773            0    9890.4616 
Loop time of 14.9838 on 3 procs for 10000 steps with 864 atoms

Performance: 57.662 ns/day, 0.416 hours/ns, 667.387 timesteps/s
95.9% CPU use with 3 MPI tasks x no OpenMP threads

MPI task timing breakdown:
Section |  min time  |  avg time  |  max time  |%varavg| %total
---------------------------------------------------------------
Pair    | 13.235     | 13.299     | 13.404     |   2.1 | 88.75
Neigh   | 0.51892    | 0.54692    | 0.57437    |   3.1 |  3.65
Comm    | 0.55424    | 0.68377    | 0.75038    |  11.1 |  4.56
Output  | 0.017      | 0.017043   | 0.017128   |   0.0 |  0.11
Modify  | 0.34277    | 0.34838    | 0.35483    |   0.8 |  2.33
Other   |            | 0.08908    |            |       |  0.59

Nlocal:        288.000 ave         288 max         288 min
Histogram: 3 0 0 0 0 0 0 0 0 0
Nghost:        2030.67 ave        2042 max        2024 min
Histogram: 1 1 0 0 0 0 0 0 0 1
Neighs:        18642.3 ave       18994 max       18338 min
Histogram: 1 0 0 1 0 0 0 0 0 1

Total # of neighbors = 55927
Ave neighs/atom = 64.730324
Neighbor list builds = 160
Dangerous builds = 0
System init for write_data ...
Total wall time: 0:00:15
