         864
Lattice="  21.4578   0.0000   0.0000   0.0000  21.4578   0.0000   0.0000   0.0000  21.4578 " Time=0.000E+00  Step=0
Cr     0.20063457    0.20276555    0.23809417       1
Co     1.98385851    1.96864406    0.23272169       2
Co     1.99664791    0.20056911    2.00985816       3
Co     0.18407962    1.98310708    1.99471788       4
Co     3.76641161    0.20516201    0.23523817       5
Co     5.54758833    1.98988054    0.23303302       6
Cr     5.52231169    0.22080045    2.00610849       7
Cr     3.72881970    2.04160375    1.96131477       8
Cr     7.30350747    0.20926490    0.17702799       9
Ni     9.14848107    1.97063985    0.17730540      10
Co     9.13533873    0.16196633    1.94779505      11
Ni     7.35391363    1.96524096    1.96315046      12
Cr    10.99360032    0.20912138    0.17307707      13
Cr    12.70376329    1.98702223    0.12247529      14
Ni    12.71783595    0.17582982    1.99521148      15
Ni    10.92814174    1.96455620    1.98501889      16
Ni    14.48157706    0.18641874    0.20111880      17
Co    16.27421333    1.96071416    0.17674075      18
Cr    16.29342626    0.28651640    1.99078715      19
Co    14.47871020    1.99250471    1.97549272      20
Co    18.08267506    0.17231861    0.17781471      21
Co    19.84409195    1.93523976    0.19328769      22
Co    19.87711604    0.17133748    1.95938111      23
Co    18.07190241    1.94842273    1.95859782      24
Ni     0.16657382    3.77250129    0.22032670      25
Co     2.00935120    5.56266965    0.19865199      26
Co     1.96882444    3.76055546    1.99514367      27
Ni     0.19279669    5.56244489    1.96791396      28
Co     3.75315640    3.76238219    0.22816562      29
Cr     5.49369781    5.50315301    0.26115082      30
Co     5.54613027    3.75394066    2.02142109      31
Co     3.76782832    5.52461238    1.97095661      32
Co     7.32484091    3.78497466    0.23490327      33
Ni     9.12600119    5.55044194    0.21413282      34
Cr     9.16257308    3.76335039    1.96334007      35
Cr     7.31497866    5.51335758    1.94169410      36
Co    10.97025799    3.77080626    0.17542569      37
Cr    12.68022226    5.54322262    0.18725252      38
Ni    12.69168911    3.74890125    1.99281710      39
Co    10.91067048    5.57136041    1.99426474      40
Cr    14.44466117    3.74776617    0.15092022      41
Ni    16.27847784    5.54404845    0.20294833      42
Co    16.30587832    3.75072674    1.94410282      43
Ni    14.48276701    5.52505859    1.96981684      44
Cr    18.09203968    3.69593686    0.20012853      45
Co    19.79419009    5.57724157    0.18073540      46
Cr    19.79444296    3.73710347    1.93705664      47
Co    18.06937117    5.57765396    1.94940746      48
Co     0.18508119    7.36502677    0.22097443      49
Cr     1.95268168    9.17538227    0.19080886      50
Co     1.95159877    7.36881566    1.98872755      51
Co     0.18951476    9.13835034    1.98338391      52
Ni     3.74439549    7.35072717    0.21551259      53
Ni     5.51524562    9.16710083    0.20042090      54
Ni     5.53089635    7.34893091    2.00082459      55
Ni     3.75390175    9.14733820    1.98708371      56
Ni     7.29374949    7.36930475    0.23296639      57
Ni     9.11154092    9.13730103    0.21212028      58
Ni     9.09060733    7.36434496    2.01060007      59
Co     7.31544110    9.23535533    2.02303428      60
Cr    10.93291869    7.31561166    0.23719297      61
Cr    12.70321392    9.12011246    0.14739736      62
Ni    12.71774872    7.35061175    1.99934709      63
Cr    10.89938681    9.13414563    1.99569603      64
Co    14.48819201    7.35441238    0.19594598      65
Ni    16.29189962    9.15396422    0.23261164      66
Cr    16.28702910    7.31091797    1.99537879      67
Ni    14.47548842    9.13991951    1.98343539      68
Cr    18.07429493    7.42859112    0.19317658      69
Co    19.84121478    9.14526922    0.21268225      70
Ni    19.86205173    7.33363714    1.97773806      71
Cr    18.08070172    9.14227431    2.01013995      72
Co     0.23068644   10.90360175    0.22376355      73
Co     1.99185741   12.71302601    0.19757910      74
Co     1.99802578   10.91850441    1.97943214      75
Ni     0.20256874   12.68978733    2.01590975      76
Cr     3.70219649   10.96796155    0.14696313      77
Cr     5.51689077   12.74951154    0.16535709      78
Cr     5.57097333   10.93231515    2.05715084      79
Ni     3.78948300   12.71032431    1.98660779      80
Ni     7.29628238   10.94537788    0.18340543      81
Co     9.07703955   12.72336442    0.15580809      82
Ni     9.11479586   10.94622604    1.99353599      83
Cr     7.33086694   12.68366371    1.98020271      84
Co    10.93701962   10.90528897    0.19200202      85
Cr    12.72903212   12.75803845    0.22534508      86
Ni    12.70200293   10.93685494    1.98429943      87
Ni    10.92019024   12.72440813    1.97025710      88
Cr    14.48186860   10.89611661    0.18324296      89
Ni    16.29557272   12.69571517    0.20163003      90
Cr    16.26326657   10.95377417    2.04647106      91
Cr    14.49004872   12.76378585    2.00152230      92
Cr    18.09770921   10.86974961    0.15677063      93
Ni    19.86993482   12.72558748    0.19573260      94
Ni    19.85673855   10.93683194    1.99933925      95
Ni    18.08266044   12.68857279    1.97876117      96
Cr     0.28010875   14.51982918    0.26296499      97
Co     1.94128195   16.28873465    0.17715986      98
Co     1.97551639   14.49111058    1.99189201      99
Co     0.19756356   16.28880676    2.00058150     100
Co     3.77816016   14.52500677    0.19258647     101
Cr     5.58160782   16.27760801    0.13875553     102
Ni     5.56778874   14.54430088    1.99596648     103
Cr     3.70296145   16.29191037    1.97644058     104
Cr     7.37103836   14.52930290    0.21253972     105
Co     9.11162691   16.31337999    0.18288819     106
Ni     9.14733351   14.49786786    2.00262694     107
Cr     7.40426712   16.33158086    1.99334601     108
Co    10.90145927   14.54416923    0.18061638     109
Co    12.72193958   16.29625177    0.20558524     110
Co    12.72541204   14.53001671    1.98282313     111
Co    10.90097389   16.31145283    1.99401646     112
Co    14.50106967   14.49581481    0.19983602     113
Co    16.29641671   16.31849718    0.20772506     114
Ni    16.28943065   14.49578056    1.97619440     115
Co    14.50979912   16.29308828    2.00224011     116
Co    18.07576646   14.51675706    0.18606707     117
Ni    19.86364689   16.26314259    0.19700427     118
Ni    19.87842082   14.48651454    1.99425349     119
Cr    18.06904683   16.26736333    2.00001371     120
Co     0.16681012   18.07992530    0.19928877     121
Co     1.95146699   19.87349724    0.21335094     122
Co     1.98448968   18.05837501    1.97322134     123
Cr     0.24602940   19.83959131    1.96705693     124
Ni     3.74876667   18.08488722    0.19072711     125
Ni     5.52267752   19.88383763    0.18392849     126
Ni     5.53491800   18.05687936    1.98235964     127
Cr     3.76086975   19.85392221    2.00399288     128
Ni     7.31281624   18.06966081    0.18083306     129
Cr     9.11272449   19.82700212    0.14157476     130
Co     9.12780684   18.09005390    2.01424985     131
Ni     7.32092943   19.87091607    1.96307240     132
Cr    10.91410425   18.01443795    0.20087616     133
Ni    12.72298539   19.83157873    0.21262755     134
Cr    12.64689598   17.96495240    1.98182053     135
Cr    10.82934138   19.84476423    1.94692968     136
Co    14.49738915   18.07269950    0.26100250     137
Ni    16.28477313   19.85958558    0.18448591     138
Cr    16.33060682   18.02316038    1.97262516     139
Cr    14.53980258   19.85001766    2.00938078     140
Cr    18.11449545   18.10175499    0.18434016     141
Cr    19.88130050   19.84274852    0.16638521     142
Ni    19.85212798   18.07805402    2.00599085     143
Cr    18.06735198   19.93195815    1.96045198     144
Ni     0.17989784    0.19377057    3.77390434     145
Cr     1.93007794    2.02389881    3.76367669     146
Cr     1.91904276    0.21125496    5.56317283     147
Co     0.14227794    1.99936353    5.54744921     148
Ni     3.75786648    0.21886719    3.78336527     149
Cr     5.57796115    2.01368084    3.74342218     150
Co     5.51135160    0.21140752    5.54258133     151
Ni     3.73362843    1.98628454    5.55154429     152
Co     7.31986691    0.17912438    3.77418740     153
Co     9.10335920    1.98784029    3.74870739     154
Co     9.13469074    0.17674103    5.55642812     155
Ni     7.32231014    1.97193809    5.56751447     156
Ni    10.90058498    0.17204317    3.76787367     157
Cr    12.69529186    1.99271102    3.81226428     158
Ni    12.71370432    0.20267218    5.54534334     159
Cr    10.85747706    1.98961985    5.55383997     160
Co    14.51141551    0.23055771    3.75234000     161
Ni    16.27193144    2.02662115    3.77899070     162
Co    16.31447439    0.22828386    5.51130449     163
Cr    14.48961094    1.99222024    5.52577060     164
Cr    18.10632475    0.23866950    3.72726477     165
Co    19.85144280    1.98229463    3.76689478     166
Ni    19.83916445    0.20258231    5.57690544     167
Ni    18.07821316    1.99436367    5.55210107     168
Ni     0.13897353    3.79152453    3.77647541     169
Co     1.95517468    5.55790940    3.75967810     170
Co     1.94483216    3.74788392    5.53307035     171
Ni     0.17637927    5.56989491    5.53655310     172
Co     3.74381316    3.75922292    3.76381423     173
Ni     5.57509035    5.54303155    3.77934441     174
Cr     5.52579453    3.76134268    5.56017547     175
Ni     3.72720298    5.55757397    5.54148848     176
Cr     7.37473759    3.74075760    3.72119035     177
Cr     9.16571929    5.59602789    3.77501341     178
Ni     9.08890078    3.77548414    5.53997394     179
Cr     7.34557854    5.58150281    5.66487818     180
Co    10.90321930    3.76569597    3.78173814     181
Co    12.70239572    5.55816381    3.77878676     182
Cr    12.63037208    3.74043400    5.53209656     183
Ni    10.92661114    5.56338308    5.54751111     184
Ni    14.48965965    3.76882789    3.77646863     185
Ni    16.28539023    5.54614206    3.74315800     186
Cr    16.42320459    3.85184956    5.51630829     187
Co    14.47726843    5.52477352    5.53441933     188
Co    18.10689693    3.75661533    3.72811268     189
Ni    19.86194365    5.57361227    3.74963301     190
Cr    19.76768840    3.80648806    5.59637338     191
Co    18.09420241    5.55264823    5.52338366     192
Cr     0.24923243    7.43232606    3.73920981     193
Co     1.97819093    9.15389726    3.77389200     194
Co     1.94065172    7.34068150    5.54784671     195
Co     0.18665684    9.15031942    5.53704306     196
Co     3.69211149    7.34108645    3.76299546     197
Ni     5.52935121    9.11925044    3.79311245     198
Ni     5.53047790    7.33902613    5.54837162     199
Co     3.72218321    9.13368994    5.57519306     200
Ni     7.33266791    7.33505207    3.77433415     201
Co     9.14592621    9.14555488    3.79196678     202
Co     9.14674199    7.34426841    5.54760899     203
Co     7.37352268    9.11622467    5.55526627     204
Co    10.93565441    7.37748119    3.77185285     205
Cr    12.69580732    9.13748554    3.82575239     206
Cr    12.71125827    7.33894934    5.53784453     207
Co    10.93547747    9.12061413    5.54746706     208
Cr    14.48474280    7.33026109    3.77874649     209
Co    16.26016966    9.11586620    3.75610592     210
Co    16.26520706    7.30433320    5.50066743     211
Ni    14.50903621    9.11307282    5.56035710     212
Co    18.05921595    7.38552218    3.74568697     213
Co    19.84222104    9.17393244    3.76687736     214
Co    19.86781360    7.35772513    5.49375851     215
Cr    18.04358414    9.06555233    5.53057561     216
Cr     0.30738520   10.79446623    3.71079311     217
Cr     2.01722709   12.65565040    3.76921324     218
Ni     1.99923279   10.91234086    5.56858376     219
Cr     0.21247398   12.66926391    5.54638850     220
Co     3.77159752   10.92292669    3.78323718     221
Ni     5.57171534   12.72033342    3.78756195     222
Co     5.56414179   10.91746486    5.51244948     223
Co     3.76062331   12.71253926    5.61368062     224
Cr     7.30749760   10.87814932    3.77124672     225
Ni     9.13894211   12.72521249    3.80129080     226
Ni     9.13370420   10.94301889    5.54142856     227
Ni     7.37102859   12.72148876    5.54487887     228
Ni    10.91659109   10.92943961    3.77195682     229
Ni    12.71552539   12.71021441    3.78052835     230
Co    12.71987681   10.88030979    5.55992183     231
Co    10.99885159   12.71429913    5.60245876     232
Co    14.50093181   10.91361975    3.76560889     233
Co    16.26219305   12.70200702    3.77979231     234
Co    16.29258105   10.91762654    5.54303145     235
Cr    14.46826452   12.62561698    5.57275354     236
Cr    17.98216805   10.86416212    3.81656119     237
Cr    19.86408367   12.68478933    3.82608236     238
Cr    19.83884527   10.91300711    5.57733162     239
Cr    18.04379914   12.74034349    5.58322917     240
Co     0.20563023   14.45698390    3.78989115     241
Ni     1.97659537   16.26969167    3.77039700     242
Ni     1.99199191   14.48722039    5.54557115     243
Cr     0.16970245   16.29674463    5.55642463     244
Ni     3.77747565   14.49652715    3.77923689     245
Cr     5.55727472   16.31084634    3.81329640     246
Cr     5.53612400   14.52462887    5.54355313     247
Cr     3.78595149   16.28039057    5.55814880     248
Ni     7.37136434   14.50750509    3.77717996     249
Co     9.14166166   16.31803095    3.82002698     250
Cr     9.17997198   14.54623571    5.60415906     251
Ni     7.35869329   16.26566150    5.57084856     252
Ni    10.92730199   14.49697564    3.80918308     253
Co    12.71400671   16.31333713    3.77456677     254
Co    12.76084569   14.49872892    5.55315454     255
Ni    10.94446941   16.27634202    5.57001598     256
Co    14.49623061   14.50764667    3.80115343     257
Co    16.25438661   16.30526389    3.75687538     258
Cr    16.24638484   14.50047170    5.53243677     259
Cr    14.50654495   16.29491154    5.54952876     260
Ni    18.07159641   14.48951041    3.75631007     261
Co    19.88961854   16.32453706    3.79296153     262
Ni    19.86631565   14.49129454    5.55015031     263
Ni    18.04382368   16.27645962    5.54676906     264
Cr     0.20189617   18.07216865    3.74163854     265
Ni     1.97939646   19.86435243    3.79347053     266
Ni     1.96210088   18.06520523    5.57024978     267
Co     0.14061178   19.82329676    5.54928110     268
Co     3.75650340   18.06058399    3.76293899     269
Cr     5.53920039   19.85195517    3.78010229     270
Co     5.53256421   18.01571452    5.53598889     271
Cr     3.78360655   19.81013549    5.53283058     272
Co     7.34152171   18.07939189    3.79923082     273
Cr     9.07461728   19.88058596    3.82532170     274
Cr     9.16263957   18.07685559    5.56647280     275
Ni     7.29481436   19.85636830    5.59373397     276
Cr    10.86898854   18.07157345    3.78756137     277
Ni    12.68929013   19.83546690    3.75583842     278
Ni    12.72103916   18.07714607    5.56233797     279
Cr    10.88853561   19.84304668    5.61273755     280
Cr    14.50883306   18.05160641    3.68728634     281
Ni    16.29087647   19.88293221    3.76747576     282
Ni    16.25638582   18.07626477    5.56487508     283
Ni    14.48772046   19.86226831    5.53549722     284
Cr    18.06615320   18.07402330    3.78861168     285
Cr    19.84877917   19.87845441    3.80471099     286
Cr    19.82982132   18.08012576    5.58144928     287
Co    18.05442017   19.86182362    5.55437332     288
Cr     0.15515436    0.14314190    7.31933888     289
Ni     1.93027349    1.97581839    7.31741108     290
Ni     1.96441126    0.19710901    9.10446327     291
Co     0.18336980    1.96104254    9.10710982     292
Ni     3.74818308    0.16747121    7.32043362     293
Cr     5.50401535    2.02512524    7.36066293     294
Ni     5.52170678    0.18364935    9.10931293     295
Co     3.73895501    1.99632134    9.10150325     296
Ni     7.30086352    0.19134584    7.34726612     297
Co     9.09162417    1.99423000    7.34720608     298
Ni     9.11721422    0.17888681    9.10509513     299
Co     7.34542216    1.98294268    9.13048983     300
Co    10.91666104    0.25195783    7.30516955     301
Co    12.72394218    2.00873171    7.27118774     302
Ni    12.75002309    0.20631318    9.10351816     303
Cr    10.91392901    1.96690584    9.07886434     304
Ni    14.52627699    0.20604300    7.31979472     305
Ni    16.29816837    2.00301760    7.30210707     306
Co    16.31918351    0.19677754    9.14322345     307
Ni    14.51872776    1.99423404    9.09500083     308
Cr    18.04321018    0.15674907    7.37979711     309
Co    19.84431547    1.97043835    7.34314736     310
Ni    19.84695399    0.20171350    9.13209941     311
Ni    18.07681114    1.99038339    9.10937455     312
Ni     0.15071086    3.75291919    7.31239647     313
Cr     1.96969475    5.47479698    7.36330392     314
Co     1.96457906    3.75086888    9.12060202     315
Co     0.25492019    5.55650863    9.06458124     316
Co     3.73375188    3.78403183    7.34996067     317
Co     5.51317042    5.53931476    7.33960586     318
Co     5.54680883    3.77923518    9.10950577     319
Cr     3.74459771    5.55475167    9.11012332     320
Cr     7.31977304    3.78439927    7.40568878     321
Co     9.16249941    5.56711722    7.33675451     322
Cr     9.13766584    3.74979425    9.10692916     323
Cr     7.34635225    5.57888437    9.10314742     324
Cr    10.90989324    3.72035017    7.30741463     325
Co    12.71227133    5.52498729    7.31294251     326
Ni    12.72144105    3.76711366    9.09809172     327
Cr    10.89939032    5.56692446    9.11270790     328
Ni    14.52759357    3.76204903    7.28552118     329
Ni    16.29740498    5.55028750    7.32958916     330
Co    16.31597304    3.80222859    9.10089832     331
Ni    14.52658173    5.53131020    9.12639659     332
Co    18.09625868    3.78002675    7.29275486     333
Co    19.87027145    5.55215671    7.30800307     334
Ni    19.85784914    3.78656724    9.09224743     335
Ni    18.08803737    5.55441970    9.11514101     336
Ni     0.19189682    7.33069419    7.32269992     337
Cr     1.95853884    9.13049577    7.31983410     338
Co     1.98355368    7.31557861    9.10636047     339
Ni     0.18037014    9.12017616    9.12871687     340
Ni     3.72937186    7.33663733    7.32150378     341
Ni     5.56032311    9.13132285    7.31469901     342
Co     5.56107213    7.34332728    9.12884963     343
Ni     3.75858417    9.11518575    9.08654382     344
Co     7.36849402    7.33965796    7.34219660     345
Cr     9.18980006    9.10614997    7.23253416     346
Cr     9.13225280    7.37652402    9.11031201     347
Cr     7.33122070    9.08414169    9.08306147     348
Cr    10.94166538    7.38848368    7.29391904     349
Co    12.72702665    9.13084450    7.32702138     350
Ni    12.72097823    7.32576955    9.10641745     351
Ni    10.94188928    9.12892161    9.11635577     352
Ni    14.50057041    7.31001829    7.32999480     353
Cr    16.26263241    9.07286300    7.33973709     354
Co    16.29752145    7.32617296    9.17387624     355
Cr    14.49066352    9.12254000    9.09944785     356
Ni    18.07617793    7.31223640    7.31908026     357
Ni    19.85892823    9.10161547    7.33884553     358
Co    19.85075735    7.32861234    9.14996871     359
Ni    18.06127849    9.09427432    9.12188459     360
Co     0.19413962   10.90178448    7.32292712     361
Cr     1.94194180   12.71484433    7.35231528     362
Ni     1.97656318   10.89595120    9.10463848     363
Cr     0.12399846   12.68439524    9.13512182     364
Cr     3.80546060   10.87939744    7.28052398     365
Ni     5.56863127   12.70427620    7.33516686     366
Co     5.56905213   10.90246264    9.11981667     367
Cr     3.80239219   12.69872297    9.10968590     368
Ni     7.36392178   10.89131042    7.31047029     369
Ni     9.17753501   12.71063470    7.32638078     370
Ni     9.13430599   10.87215045    9.10658559     371
Ni     7.37838622   12.67272489    9.12091421     372
Co    10.93650905   10.89395113    7.32342451     373
Cr    12.71529311   12.58206079    7.27899872     374
Co    12.73869893   10.89501189    9.12709635     375
Ni    10.93893068   12.67713263    9.12382429     376
Co    14.52947162   10.88155503    7.35890512     377
Cr    16.26881772   12.72446210    7.32590004     378
Cr    16.27794893   10.87769280    9.15014125     379
Co    14.49003664   12.64891393    9.10002273     380
Ni    18.05157624   10.88998318    7.34597039     381
Co    19.85592671   12.68365741    7.31829718     382
Co    19.84664853   10.93560362    9.14635227     383
Ni    18.04865979   12.69582984    9.11890220     384
Co     0.19332656   14.47589573    7.32744844     385
Co     1.97418748   16.25276992    7.33811001     386
Ni     1.95610663   14.47252693    9.14593142     387
Ni     0.16402624   16.26815507    9.11434664     388
Cr     3.75473737   14.49604951    7.37336334     389
Ni     5.55562853   16.25024022    7.36520752     390
Cr     5.55093624   14.46358249    9.17673626     391
Cr     3.71845259   16.26471951    9.14844605     392
Ni     7.37608408   14.47894139    7.34845577     393
Co     9.16639014   16.27415500    7.33973990     394
Co     9.19596229   14.49092105    9.17242973     395
Ni     7.38135552   16.26415835    9.12528244     396
Ni    10.94523711   14.46675560    7.33762492     397
Ni    12.72390089   16.29230216    7.34419631     398
Ni    12.70402977   14.46034369    9.12752841     399
Ni    10.94577562   16.26872825    9.14471275     400
Ni    14.46218148   14.47327358    7.33738437     401
Co    16.25899529   16.27703268    7.35449500     402
Cr    16.23098824   14.50100125    9.12628450     403
Co    14.49189742   16.27793420    9.13085135     404
Co    18.04789421   14.48986889    7.34232314     405
Cr    19.85407697   16.27056117    7.33710265     406
Cr    19.85302539   14.46149951    9.11097065     407
Cr    18.05201237   16.25734894    9.09303656     408
Co     0.14065784   18.07696027    7.32728661     409
Co     1.98387240   19.86052963    7.32042804     410
Co     1.95799902   18.06471725    9.14235167     411
Ni     0.17711146   19.87038838    9.11421844     412
Ni     3.75482820   18.04248468    7.35382005     413
Cr     5.50238969   19.82802957    7.30395593     414
Ni     5.55922951   18.06371061    9.11671467     415
Co     3.72630065   19.83244353    9.12444806     416
Ni     7.36786868   18.06572441    7.36241180     417
Co     9.16002036   19.82610848    7.28527654     418
Co     9.16535068   18.06691791    9.21029444     419
Ni     7.34024161   19.85672172    9.12298245     420
Co    10.90256826   18.06827802    7.31817092     421
Ni    12.73368639   19.85786773    7.34109999     422
Co    12.68609993   18.07371520    9.13248682     423
Ni    10.93180756   19.89420547    9.07612688     424
Cr    14.51713433   18.07610092    7.40940260     425
Ni    16.26781190   19.88469777    7.33890420     426
Co    16.29471962   18.07154699    9.14146382     427
Co    14.52608801   19.85847453    9.14429807     428
Cr    18.05186363   18.08736304    7.36357228     429
Co    19.80927145   19.85546436    7.33516329     430
Co    19.83995439   18.07529817    9.11191366     431
Cr    18.04239619   19.85668101    9.13433132     432
Co     0.23591836    0.15594345   10.92221322     433
Cr     1.97086160    1.99577234   10.82659355     434
Co     1.99047257    0.20140487   12.69815418     435
Ni     0.18455576    1.96656499   12.67051414     436
Co     3.72656694    0.21777227   10.91247353     437
Ni     5.52790106    1.97864966   10.88078591     438
Cr     5.48384635    0.21173596   12.70333717     439
Ni     3.73410079    2.02895818   12.66900850     440
Cr     7.35326336    0.23559314   10.92006784     441
Cr     9.12764854    1.99978127   10.90497994     442
Cr     9.20677263    0.35152695   12.71853599     443
Ni     7.26925501    2.00446789   12.70319569     444
Co    10.88889795    0.19888111   10.90076609     445
Ni    12.72688961    1.97772409   10.87611363     446
Cr    12.68514873    0.23606066   12.71235690     447
Co    10.96668144    2.00844324   12.69087203     448
Cr    14.57142694    0.17945431   10.89130367     449
Ni    16.29949806    2.02270134   10.87739947     450
Cr    16.26896504    0.25755916   12.69877312     451
Co    14.52045064    1.95828934   12.67508229     452
Cr    18.01034307    0.16375644   10.87378810     453
Ni    19.85192874    1.99858196   10.88616607     454
Ni    19.82812338    0.19582057   12.67721494     455
Ni    18.08389981    2.00561434   12.66851827     456
Ni     0.17791173    3.76566167   10.88211232     457
Co     2.02224906    5.53501776   10.86388940     458
Ni     1.94748530    3.77096633   12.66891800     459
Ni     0.16939524    5.55079100   12.68147553     460
Cr     3.76502026    3.76463226   10.83840649     461
Ni     5.56073885    5.57051498   10.91544304     462
Co     5.50105372    3.80412850   12.70138317     463
Cr     3.73327810    5.56774243   12.67032289     464
Co     7.33909889    3.77170450   10.88964679     465
Cr     9.13851265    5.57057453   10.92894358     466
Cr     9.12113559    3.67058057   12.75161760     467
Cr     7.35818137    5.46486082   12.72514449     468
Co    10.88139291    3.76485400   10.87422485     469
Ni    12.72263473    5.53922675   10.90087057     470
Cr    12.74856592    3.73326992   12.66463002     471
Ni    10.94543231    5.50390065   12.72142700     472
Co    14.53623343    3.77354586   10.93314016     473
Cr    16.33475246    5.58588883   10.89507645     474
Ni    16.29234010    3.78844863   12.69075515     475
Ni    14.50865443    5.52829628   12.71590897     476
Co    18.03001364    3.83132665   10.87792409     477
Ni    19.85455865    5.55974684   10.87681613     478
Ni    19.85761601    3.76072449   12.71127283     479
Ni    18.08245992    5.54923576   12.69217405     480
Ni     0.16347016    7.34557740   10.90735295     481
Co     1.96455926    9.09831659   10.88213677     482
Ni     1.94728538    7.34153806   12.68600689     483
Cr     0.20350793    9.13659231   12.67160528     484
Cr     3.73772185    7.34346230   10.87655233     485
Cr     5.54514652    9.12582803   10.90438849     486
Cr     5.53113747    7.31732538   12.70353851     487
Ni     3.75083915    9.10129570   12.71642954     488
Ni     7.35618127    7.36150391   10.95096432     489
Cr     9.19424560    9.13948358   11.00309010     490
Cr     9.21821575    7.35164451   12.73099856     491
Cr     7.34636328    9.13941979   12.75046662     492
Co    10.90206205    7.34229684   10.89184227     493
Cr    12.72417154    9.09882213   10.90382766     494
Co    12.68755960    7.30985315   12.70749391     495
Co    10.92181511    9.12343132   12.73174987     496
Ni    14.51050920    7.32306826   10.92409262     497
Co    16.29014521    9.10785926   10.88850782     498
Cr    16.32546421    7.32182144   12.64456778     499
Ni    14.49816674    9.08862261   12.71933851     500
Cr    18.03636857    7.31158291   10.91304880     501
Cr    19.82536112    9.11444689   10.87256570     502
Ni    19.85894242    7.34523439   12.68818426     503
Ni    18.06729876    9.10098496   12.69671302     504
Co     0.13255821   10.88581512   10.92342343     505
Ni     1.94325913   12.68019266   10.89874346     506
Ni     1.95803172   10.88202583   12.68709628     507
Co     0.15148492   12.68124797   12.69901045     508
Ni     3.76750667   10.88720509   10.88329183     509
Co     5.57550592   12.67606196   10.91381792     510
Co     5.57268129   10.90432137   12.70156752     511
Cr     3.75938972   12.66590920   12.66520816     512
Cr     7.34042053   10.88149044   10.91601526     513
Co     9.14392657   12.63059712   10.96227998     514
Cr     9.14327597   10.89779811   12.73980823     515
Cr     7.34065009   12.70527694   12.68041916     516
Ni    10.94646157   10.90790109   10.92247101     517
Cr    12.68815179   12.67595815   10.93269947     518
Ni    12.73015522   10.89159767   12.72677394     519
Co    10.92160166   12.66738441   12.72212161     520
Ni    14.48586311   10.88273168   10.92266473     521
Cr    16.23750241   12.65550863   10.90075856     522
Ni    16.28243380   10.88180645   12.69426643     523
Co    14.51822874   12.68767455   12.68574927     524
Cr    18.06130802   10.91547289   10.91105575     525
Cr    19.89243038   12.74249410   10.89246436     526
Ni    19.84059371   10.89989882   12.69141817     527
Co    18.05976173   12.69522874   12.66865713     528
Co     0.13941039   14.50324650   10.92105854     529
Co     2.00608583   16.27650158   10.90835990     530
Ni     1.96167405   14.49256705   12.67792489     531
Ni     0.16541647   16.30598068   12.66427143     532
Co     3.79689800   14.46371854   10.93600450     533
Cr     5.52667704   16.27313450   10.89543499     534
Cr     5.58880205   14.45994208   12.66684011     535
Cr     3.77502853   16.28675308   12.68181142     536
Ni     7.38944532   14.47122188   10.88354603     537
Cr     9.22880969   16.23493863   10.94471151     538
Ni     9.15441754   14.45364965   12.70909187     539
Co     7.35100307   16.26738000   12.65895619     540
Cr    10.90974943   14.41485821   10.93618811     541
Cr    12.63659680   16.29038259   10.93991742     542
Ni    12.71692591   14.45706017   12.71681426     543
Cr    10.93795532   16.25359758   12.77922818     544
Ni    14.46092049   14.46971027   10.90693764     545
Cr    16.28132958   16.28936132   10.86921319     546
Cr    16.26833578   14.46307519   12.70239473     547
Ni    14.48451802   16.25772151   12.70241748     548
Ni    18.03556677   14.46476382   10.91807835     549
Co    19.79386496   16.24976599   10.88634428     550
Co    19.79786676   14.46143915   12.70228105     551
Cr    18.04178653   16.25972095   12.71214003     552
Cr     0.18432912   18.06083077   10.85169903     553