LAMMPS data file via write_data, version 27 May 2021, timestep = 588

864 atoms
3 atom types

-0.10615274128727302 21.22615274128711 xlo xhi
-0.10615274128727302 21.22615274128711 ylo yhi
-0.10615274128727302 21.22615274128711 zlo zhi

Masses

1 58.69
2 58.93
3 52

Atoms # atomic

1 3 0.25867162818951583 0.26793021338551987 0.2976935797017075 0 0 0
2 2 2.0320767829178163 2.019251983971261 0.29498969262846014 0 0 0
3 2 2.0457603355776546 0.2597600317981745 2.05518524680389 0 0 0
4 2 0.2475852294206402 2.0348011689800303 2.0464077845644573 0 0 0
5 2 3.8071842979673276 0.265287554289634 0.29351336079252716 0 0 0
6 2 5.5755748834505745 2.04155156672327 0.29282657564793296 0 0 0
7 3 5.552471251368803 0.2791259052554867 2.0475798158497933 0 0 0
8 3 3.767307457165801 2.097683300897999 2.012973270844199 0 0 0
9 3 7.329183913804335 0.2713188362509197 0.23664452114419413 0 0 0
10 1 9.154251319267143 2.029118415206774 0.23997993077546625 0 0 0
11 2 9.145317673537395 0.22385533493469018 2.0017865637288375 0 0 0
12 1 7.37444754776557 2.0189505508627565 2.015945079805573 0 0 0
13 3 10.983957390011936 0.26725156099262026 0.2327635886395346 0 0 0
14 3 12.687333756369577 2.0473495059323135 0.18374812002963353 0 0 0
15 1 12.705250887748662 0.24333065262588832 2.040491696092187 0 0 0
16 1 10.924281627599607 2.017177697314453 2.0328621520606953 0 0 0
17 1 14.45626222974731 0.2536979179178055 0.2547544827849307 0 0 0
18 2 16.240026505941806 2.014809861416249 0.24118141884524902 0 0 0
19 3 16.25368989025091 0.3514735070703661 2.0417686773111967 0 0 0
20 2 14.46034200347471 2.0392502491900246 2.0286189346863517 0 0 0
21 2 18.03840867305382 0.23631004113333406 0.2449262469803921 0 0 0
22 2 19.79296425772963 1.992187394568781 0.2549318911421076 0 0 0
23 2 19.817024199510556 0.23891677845989603 2.0147902795387553 0 0 0
24 2 18.030407971854817 2.011441147716 2.011831434923597 0 0 0
25 1 0.2301715914791535 3.811474536312935 0.28261296320308965 0 0 0
26 2 2.0559706598356 5.594680913003386 0.25859034259073294 0 0 0
27 2 2.02171467614997 3.8055416224947263 2.0498131367205605 0 0 0
28 1 0.25439388744128827 5.592148130609231 2.0198305674671424 0 0 0
29 2 3.7903202992302796 3.8019243393883886 0.28836080108263445 0 0 0
30 3 5.519064911970391 5.534529137713671 0.32445205331467325 0 0 0
31 2 5.58093956989995 3.801654941956731 2.0698560537749806 0 0 0
32 2 3.808175853642818 5.557397177142699 2.018838596574035 0 0 0
33 2 7.3418469699214075 3.8307916266052375 0.29446184301362943 0 0 0
34 1 9.133471757306703 5.577755615213743 0.27191267601791463 0 0 0
35 3 9.16825140497172 3.8047573914894977 2.0182512765862604 0 0 0
36 3 7.341030443538823 5.5482696348468 1.996820364784359 0 0 0
37 2 10.959333815290575 3.8104780297577907 0.23960240437614014 0 0 0
38 3 12.667614864802319 5.559282411366173 0.24908230649701069 0 0 0
39 1 12.681424013295953 3.788966801118754 2.0445300693936646 0 0 0
40 2 10.90502990898801 5.5982913383468285 2.0447468989943336 0 0 0
41 3 14.427729763244535 3.7895689849684806 0.21414965311783987 0 0 0
42 1 16.249769684824262 5.574831047486575 0.26207107938587026 0 0 0
43 2 16.272266717710366 3.794110661716212 1.998605107022915 0 0 0
44 1 14.464389920426555 5.5547759443948665 2.021517220458607 0 0 0
45 3 18.04595278362414 3.73934590963639 0.2544816272908252 0 0 0
46 2 19.750542392323805 5.60175025004592 0.23898479318847696 0 0 0
47 3 19.743042301208526 3.7783885501249594 1.9922141072251656 0 0 0
48 2 18.032243878241303 5.6018971455307 1.9992108740985572 0 0 0
49 2 0.2453789283477742 7.3816479025905934 0.27588509807150335 0 0 0
50 3 1.997678881406292 9.179188898973912 0.24823324484981155 0 0 0
51 2 2.001525532628725 7.382277671781377 2.0384982928880833 0 0 0
52 2 0.2509198193937659 9.146607445075809 2.025311268314213 0 0 0
53 1 3.7839949828910147 7.370387842472377 0.2733754997598994 0 0 0
54 1 5.546020194745516 9.173920387549169 0.26350764268493404 0 0 0
55 1 5.558420563051908 7.36837408813646 2.0517096499853618 0 0 0
56 1 3.7888418977342146 9.15215238550992 2.0380824870942624 0 0 0
57 1 7.316980469891591 7.386522654636742 0.2927200657320942 0 0 0
58 1 9.121346825057266 9.147672629570666 0.27078740518076383 0 0 0
59 1 9.10422849338709 7.382958703753426 2.057364137040806 0 0 0
60 2 7.333602321499311 9.231736046663263 2.070225340363947 0 0 0
61 3 10.929379255256519 7.332712270653488 0.2866833878564912 0 0 0
62 3 12.689742685355878 9.130196617915482 0.21120723494917773 0 0 0
63 1 12.701987828899135 7.363282749098494 2.0438795859537526 0 0 0
64 3 10.89819930422796 9.141208637232523 2.044802523274917 0 0 0
65 2 14.46665409042223 7.363152576207209 0.25657879004924244 0 0 0
66 1 16.25489461122074 9.15113179917193 0.28923603039414325 0 0 0
67 3 16.262038189431514 7.327803575284947 2.049793195413602 0 0 0
68 1 14.453278340225527 9.140236393082114 2.034768561065519 0 0 0
69 3 18.037219132096325 7.45076217139927 0.24169395259302515 0 0 0
70 2 19.7860918642634 9.150049017755324 0.26810001808981426 0 0 0
71 1 19.8100143949464 7.354936827403869 2.023743253452015 0 0 0
72 3 18.03364498393808 9.14777675610175 2.067113147575498 0 0 0
73 2 0.28735905475288814 10.900566835142731 0.2779435754997654 0 0 0
74 2 2.040454628279209 12.701910195622512 0.25753885327839576 0 0 0
75 2 2.0468343635310693 10.91236056020017 2.0236670494355384 0 0 0
76 1 0.26589245191971816 12.674563523474905 2.057577634477816 0 0 0
77 3 3.7409262818531848 10.963940960048657 0.2137093673912174 0 0 0
78 3 5.5431078569778816 12.73912382210738 0.23673685848314827 0 0 0
79 3 5.5890380109766795 10.930433843123222 2.1038966724408774 0 0 0
80 1 3.8171121973986315 12.698675647014273 2.042726827161363 0 0 0
81 1 7.317630763901956 10.943250498052974 0.252653467804735 0 0 0
82 2 9.092402414108966 12.71003771502763 0.22558256093348067 0 0 0
83 1 9.12707738555554 10.94118160901329 2.0480029501957024 0 0 0
84 3 7.35341956448126 12.670454558723291 2.0389689635098627 0 0 0
85 2 10.93647668896612 10.906790927658733 0.25777443082632817 0 0 0
86 3 12.716818194102252 12.745315764304857 0.28875171594947796 0 0 0
87 1 12.690722519811247 10.934572324173184 2.037500294905733 0 0 0
88 1 10.920242048234266 12.716259481853541 2.0228733221646857 0 0 0
89 3 14.463715571635133 10.894703207820761 0.2498469217521089 0 0 0
90 1 16.26057120877288 12.688195135695727 0.26227458690013417 0 0 0
91 3 16.23161679329086 10.944824587715196 2.088146149289184 0 0 0
92 3 14.470052204609168 12.751291478704273 2.0565672933496186 0 0 0
93 3 18.0488074906167 10.861083424950596 0.2145502534161738 0 0 0
94 1 19.816360671994786 12.709293270661048 0.25410337519141 0 0 0
95 1 19.801061448044862 10.931543517027299 2.0405702462953212 0 0 0
96 1 18.03686893443576 12.67878874110302 2.0212412609437482 0 0 0
97 3 0.34198209383531364 14.496858876234384 0.3226336780449762 0 0 0
98 2 1.9956497461568705 16.254985381481607 0.2412301127930379 0 0 0
99 2 2.0231347217002957 14.471246586691159 2.0406546172631455 0 0 0
100 2 0.25560620734579775 16.256496948344267 2.0490316320184943 0 0 0
101 2 3.819135074188675 14.499852227568898 0.25657999305794016 0 0 0
102 3 5.605331814110602 16.243066181866826 0.21114949387272688 0 0 0
103 1 5.59085440280399 14.519145259111417 2.052286788997612 0 0 0
104 3 3.7410284020466666 16.26426081168069 2.0324889880407433 0 0 0
105 3 7.388245648099543 14.500860329449514 0.27680573959977917 0 0 0
106 2 9.127554125048004 16.274538555359147 0.24374641582038187 0 0 0
107 1 9.15737777326583 14.480561129306766 2.0516512061681658 0 0 0
108 3 7.418994050609679 16.295136517227643 2.0413901220746578 0 0 0
109 2 10.90229823423203 14.512912479033407 0.24278742904245712 0 0 0
110 2 12.706829782988219 16.25770987708021 0.2619475670307056 0 0 0
111 2 12.713203153482311 14.50309818784012 2.031182311372069 0 0 0
112 2 10.904530732779955 16.277713049045687 2.0431146519156695 0 0 0
113 2 14.473159765767006 14.469922437290778 0.25796999518679153 0 0 0
114 2 16.260406142922687 16.276668464323503 0.2621769097359253 0 0 0
115 1 16.25483959047973 14.474838456455847 2.0220487639951457 0 0 0
116 2 14.484610575508588 16.257017655111465 2.0477098179206523 0 0 0
117 2 18.036463460967948 14.489954760630706 0.23871022521556376 0 0 0
118 1 19.81239505369877 16.23256043738729 0.252808734422499 0 0 0
119 1 19.822903784479635 14.467088331692576 2.034161059025108 0 0 0
120 3 18.02268523662417 16.231872148636604 2.0405224412140663 0 0 0
121 2 0.23053725301781938 18.03852342036981 0.25697862918405856 0 0 0
122 2 2.0015983086963094 19.818094336013313 0.27199981831933373 0 0 0
123 2 2.0315002609355046 18.01625610501068 2.0241932803842593 0 0 0
124 3 0.30725251033281054 19.786642211591694 2.0108963767187897 0 0 0
125 1 3.784829254578865 18.03799298890227 0.251142521994305 0 0 0
126 1 5.552382082338119 19.82375474037139 0.24466391078461708 0 0 0
127 1 5.566654527107512 18.017367945006765 2.031277839671439 0 0 0
128 3 3.7937468329559763 19.792236126413727 2.0566075608211327 0 0 0
129 1 7.3357315808054455 18.02319280959529 0.24170894871843893 0 0 0
130 3 9.122673673033415 19.774425419928303 0.2005145235524721 0 0 0
131 2 9.136985998402118 18.04334225064796 2.0616113250117465 0 0 0
132 1 7.3449608303987 19.81538988898484 2.0119114520069283 0 0 0
133 3 10.915598199988969 17.972086893497952 0.26204336775824494 0 0 0
134 1 12.711541882500219 19.781496294353865 0.26935127949302884 0 0 0
135 3 12.649782307448886 17.923510364070776 2.0295459902879043 0 0 0
136 3 10.833161676384421 19.78989894034545 2.0011857336819197 0 0 0
137 2 14.471688259026582 18.02584673285754 0.30628063268592515 0 0 0
138 1 16.243089821651747 19.808887352967947 0.24123846754524422 0 0 0
139 3 16.28265434255274 17.974467996797625 2.0140641870042195 0 0 0
140 3 14.517296008831776 19.801913085877747 2.0572016253030987 0 0 0
141 3 18.06109368772185 18.05182058870599 0.24411691518320042 0 0 0
142 3 19.828238490079865 19.78966387931627 0.2331602499373952 0 0 0
143 1 19.79630931768082 18.031438033294084 2.049039034296256 0 0 0
144 3 18.00893245902872 19.870000685100496 2.0094451911672175 0 0 0
145 1 0.2424363798921888 0.25859884900628227 3.809647509499375 0 0 0
146 3 1.9858633622014707 2.0790458690347093 3.802081933764419 0 0 0
147 3 1.970794717777072 0.2739531795740344 5.590654899699977 0 0 0
148 2 0.20887949770148478 2.0494383821920046 5.576264128895237 0 0 0
149 1 3.7951711897210023 0.27414159235917657 3.8190536091166 0 0 0
150 3 5.602544842241349 2.061177079914973 3.7805431487122862 0 0 0
151 2 5.542179940994859 0.2630890898990329 5.570135632449417 0 0 0
152 1 3.7758160842446378 2.0353358170419247 5.582534175383232 0 0 0
153 2 7.340145041961277 0.24000514536736034 3.810651533918214 0 0 0
154 2 9.11813668238189 2.0355114504802714 3.7912969794951903 0 0 0
155 2 9.145657911212503 0.23451075263754267 5.586002194801577 0 0 0
156 1 7.343098799949828 2.0169578970009914 5.595072295058101 0 0 0
157 1 10.900760929781553 0.23528355106454393 3.808245381453756 0 0 0
158 3 12.682970124549684 2.042510955659717 3.854151838079137 0 0 0
159 1 12.702366394506 0.26164801150298433 5.577962670957821 0 0 0
160 3 10.857746415769597 2.0329628802105995 5.584792928600991 0 0 0
161 2 14.487096331603684 0.28769775462669256 3.7953154249918852 0 0 0
162 1 16.242710348511853 2.0770801200269964 3.8212436216774703 0 0 0
163 2 16.275506318644204 0.28785310903500205 5.547931096527556 0 0 0
164 3 14.469476667025305 2.0431884651895382 5.560941658990028 0 0 0
165 3 18.06018935980151 0.3016907218690131 3.7686490916120814 0 0 0
166 2 19.798527195827365 2.0379482699003844 3.808666345589297 0 0 0
167 1 19.78747941154725 0.2623109402409277 5.603719674576053 0 0 0
168 1 18.036027297483347 2.03895216054785 5.584544244510886 0 0 0
169 1 0.2013621724123593 3.8325246988721764 3.8171311386744398 0 0 0
170 2 2.008472607417375 5.593185640775234 3.803164304724316 0 0 0
171 2 1.9977688574273234 3.7933261933168105 5.563353488949789 0 0 0
172 1 0.23946082280792205 5.602638459438763 5.564824529917351 0 0 0
173 2 3.7883056072939567 3.804983523795333 3.809033153523772 0 0 0
174 1 5.597847751165958 5.5810617285226245 3.8192628959409065 0 0 0
175 3 5.558541062960528 3.8045860736843813 5.591003184177353 0 0 0
176 1 3.7681879254304538 5.588934609509381 5.578383690758899 0 0 0
177 3 7.390876441369993 3.782943333959572 3.771682053562348 0 0 0
178 3 9.171381431733149 5.627694522944421 3.8171947558350627 0 0 0
179 1 9.103572828719368 3.8099298722287993 5.571118517148433 0 0 0
180 3 7.365168734982006 5.61225975446668 5.689751133162293 0 0 0
181 2 10.90222998462622 3.8077421477191136 3.815574153572548 0 0 0
182 2 12.695294221889032 5.58901586470853 3.816437678380762 0 0 0
183 3 12.624097346760893 3.7847010035729522 5.561039368808039 0 0 0
184 1 10.92407801222773 5.592704284782603 5.574493349726658 0 0 0
185 1 14.472998618749605 3.8095594012418563 3.8185107634944235 0 0 0
186 1 16.260112888055094 5.576243783660895 3.7867142801643565 0 0 0
187 3 16.395905230056268 3.891892031402989 5.553970487051855 0 0 0
188 2 14.461011346131942 5.561043820425087 5.56609667271031 0 0 0
189 2 18.065173629272785 3.802198041366706 3.7750341030235504 0 0 0
190 1 19.811002920778044 5.609186627941581 3.7898548488654145 0 0 0
191 3 19.707548905087666 3.856131643764152 5.6323340488745925 0 0 0
192 2 18.052098712109117 5.584130855932476 5.559020643172794 0 0 0
193 3 0.3225389104570528 7.460126915197211 3.774995193053934 0 0 0
194 2 2.032473495925255 9.151566851842409 3.8133289103630066 0 0 0
195 2 1.9955271081632453 7.362585491876395 5.581130892531643 0 0 0
196 2 0.2441619778380434 9.155513803425945 5.56752149887155 0 0 0
197 2 3.7368626645989793 7.360130924912086 3.806190661337396 0 0 0
198 1 5.556216530278121 9.128558579242451 3.833077017086079 0 0 0
199 1 5.558704166905061 7.358214029176666 5.5786808045150105 0 0 0
200 2 3.7662021298727866 9.1432675429532 5.606102362281429 0 0 0
201 1 7.351960172374221 7.358152945062658 3.814844010263819 0 0 0
202 2 9.149308803498268 9.152512770914177 3.826244393949938 0 0 0
203 2 9.15197496855207 7.366662019793668 5.577125638037004 0 0 0
204 2 7.388343161056024 9.129595480938715 5.581779768720613 0 0 0
205 2 10.932611094708028 7.394381620582033 3.8078490019751214 0 0 0
206 3 12.681093905339296 9.142394135752207 3.860906415899204 0 0 0
207 3 12.700152422006003 7.3529491876662965 5.566514283131422 0 0 0
208 2 10.933156932299557 9.132268131623798 5.570139360979262 0 0 0
209 3 14.46553349636759 7.346192886960721 3.819699266230168 0 0 0
210 2 16.22991947735489 9.125976412155673 3.7978556048720877 0 0 0
211 2 16.236307654273936 7.331362605621719 5.536963801113934 0 0 0
212 1 14.481714824619841 9.124623869408712 5.587824854417651 0 0 0
213 2 18.018288947918283 7.3995845613578775 3.785925056531508 0 0 0
214 2 19.790680076840083 9.175500402423289 3.8035529467271063 0 0 0
215 2 19.812224305176375 7.3758346945828706 5.527495659451046 0 0 0
216 3 18.004887322299776 9.073808814066842 5.556135352521111 0 0 0
217 3 0.36113580102159365 10.781295821981209 3.746622476268818 0 0 0
218 3 2.056391390751235 12.644070545185413 3.8110987179009492 0 0 0
219 1 2.044922300323322 10.909391997762137 5.591623581509918 0 0 0
220 3 0.2690326902549643 12.659827815026121 5.576608379459282 0 0 0
221 2 3.81097298223354 10.919231625754756 3.8188424537266377 0 0 0
222 1 5.598358725848028 12.704941806498423 3.8273063568273273 0 0 0
223 2 5.591643166795584 10.91955705747777 5.547444929045204 0 0 0
224 2 3.8018978559562018 12.70171783060905 5.635498465360465 0 0 0
225 3 7.328136742186949 10.870702591458784 3.8116602393731553 0 0 0
226 1 9.151869430160572 12.717119604742287 3.8414203102968996 0 0 0
227 1 9.142167999688338 10.937205227656342 5.570008321430442 0 0 0
228 1 7.39028590287542 12.709569145933287 5.572871575346507 0 0 0
229 1 10.912852410706948 10.927493435403974 3.810262023419007 0 0 0
230 1 12.699096438572198 12.703031007879828 3.8153122523165406 0 0 0
231 2 12.703519674671972 10.884550492316755 5.583532969185193 0 0 0
232 2 10.985489951864455 12.703222177309838 5.62336485355019 0 0 0
233 2 14.47997865566564 10.913224652751875 3.8020810988149014 0 0 0
234 2 16.236943131072657 12.68757870387968 3.814092838211834 0 0 0
235 2 16.2568241577893 10.917801245394715 5.573953362982324 0 0 0
236 3 14.441789427210884 12.612654434820163 5.589929797387427 0 0 0
237 3 17.94896801205308 10.871371674003537 3.858194180448394 0 0 0
238 3 19.81571807467172 12.673545937790136 3.85275001120987 0 0 0
239 3 19.788640236267394 10.908147286404565 5.603542290982148 0 0 0
240 3 18.010714442116647 12.726872000924992 5.610073200112921 0 0 0
241 2 0.25972709134789757 14.434969873141185 3.822464103081839 0 0 0
242 1 2.0208650864759847 16.240085148034492 3.8091502697102264 0 0 0
243 1 2.0366019229891323 14.466276876636888 5.573757847673716 0 0 0
244 3 0.22924455824610585 16.261326997077283 5.582836242456972 0 0 0
245 1 3.812574571583444 14.478601412699245 3.8213962283917033 0 0 0
246 3 5.588711469391981 16.2821473449457 3.8469854690868313 0 0 0
247 3 5.567127403998391 14.504568804221956 5.574201866380336 0 0 0
248 3 3.8194239974777084 16.25651990522498 5.585326058562892 0 0 0
249 1 7.389277303461615 14.488097152198213 3.8181591982270824 0 0 0
250 2 9.147659534477475 16.28814750765982 3.8560785150172063 0 0 0
251 3 9.185462521542659 14.537507284317059 5.640416354206667 0 0 0
252 1 7.375268599702035 16.2377221200521 5.60346671758977 0 0 0
253 1 10.923194870993298 14.48362343255657 3.8438517862488952 0 0 0
254 2 12.704923892482368 16.27763106313579 3.8153913637483816 0 0 0
255 2 12.739072152812655 14.471486609917786 5.579108422158375 0 0 0
256 1 10.942605206645409 16.2464983291592 5.601478927178884 0 0 0
257 2 14.47623714486976 14.484927520411832 3.838565195285855 0 0 0
258 2 16.226048226793164 16.269082333450076 3.7975206016796714 0 0 0
259 3 16.21177034250718 14.471787242728906 5.562950062798634 0 0 0
260 3 14.481016818616999 16.25972800661607 5.583255441693248 0 0 0
261 1 18.028057733360242 14.466799271026163 3.7951794804073713 0 0 0
262 2 19.826781175971174 16.286140451542447 3.825662320033002 0 0 0
263 1 19.812139399372853 14.470166557810106 5.578331018679067 0 0 0
264 1 18.00313714617292 16.24277956189299 5.5783327838888175 0 0 0
265 3 0.2506682499840083 18.024767267923405 3.783546917835792 0 0 0
266 1 2.021206015831443 19.807066639459567 3.8287410738997347 0 0 0
267 1 2.0057111957444684 18.02077047188363 5.599072975689207 0 0 0
268 2 0.20698748358888833 19.77668184414448 5.5782712846557265 0 0 0
269 2 3.799209801946145 18.01864750071004 3.8066433534940716 0 0 0
270 3 5.579565980374685 19.799491734066137 3.8200408939241695 0 0 0
271 2 5.563360680809512 17.98105043211101 5.571770186826465 0 0 0
272 3 3.8136081649976226 19.75044886296154 5.556569190396811 0 0 0
273 2 7.359863737662863 18.033900838211892 3.834140928136894 0 0 0
274 3 9.08269119081929 19.82421422363727 3.8659878152984475 0 0 0
275 3 9.171683014430275 18.023934109742708 5.604563124025736 0 0 0
276 1 7.321760494915766 19.800416920692655 5.621574540333742 0 0 0
277 3 10.872914702123339 18.02579872286898 3.8200577790717296 0 0 0
278 1 12.681429094872737 19.7858099116398 3.796918598245326 0 0 0
279 1 12.708753621417557 18.035740232522667 5.5944463998963645 0 0 0
280 3 10.887935544225865 19.790048066043596 5.64191801556101 0 0 0
281 3 14.485721225027048 18.003925198249423 3.7347661009991255 0 0 0
282 1 16.254627565460474 19.827719938836793 3.807303660399981 0 0 0
283 1 16.22421199923264 18.029612725908702 5.594944082819162 0 0 0
284 1 14.46702145201785 19.807149267343583 5.570418853914719 0 0 0
285 3 18.020904912970263 18.031657856845936 3.824396682946804 0 0 0
286 3 19.795625651061968 19.826545052596543 3.8368807290588225 0 0 0
287 3 19.777413540550196 18.039130820745715 5.608433594247791 0 0 0
288 2 18.00959033611108 19.811966904277156 5.583224419382707 0 0 0
289 3 0.21044084766539703 0.206769323099602 7.340044653360097 0 0 0
290 1 1.9831252374813952 2.0274733106278267 7.338372059873574 0 0 0
291 1 2.009721235000837 0.25804895573341907 9.108558842337919 0 0 0
292 2 0.24187210653575994 2.0144268781777264 9.117263808205472 0 0 0
293 1 3.785666907329454 0.2262754199566503 7.336662107161963 0 0 0
294 3 5.532732625158811 2.0684193534171786 7.379072222795484 0 0 0
295 1 5.551011128561028 0.2431660981776714 9.115399685769788 0 0 0
296 2 3.7805939663929657 2.042937653142545 9.111540466233654 0 0 0
297 1 7.3217204146563235 0.2516240284693693 7.365048767771166 0 0 0
298 2 9.107389558655507 2.038171735057093 7.36581126382288 0 0 0
299 1 9.130333932474898 0.24278935908980923 9.113289929400485 0 0 0
300 2 7.364102034128871 2.032772265551322 9.137811415153502 0 0 0
301 2 10.918702170327625 0.3064494993433541 7.326974578652732 0 0 0
302 2 12.710632399280833 2.057663393507569 7.296674687011737 0 0 0
303 1 12.737456727847128 0.2662804799949556 9.114268009750056 0 0 0
304 3 10.91521730415114 2.018879994539351 9.088083510815038 0 0 0
305 1 14.501366998156001 0.26498430210364765 7.344397268426292 0 0 0
306 1 16.263184088233775 2.050743724485155 7.326342657409473 0 0 0
307 2 16.27814349111205 0.2581670758587074 9.14916506471235 0 0 0
308 1 14.492367425338845 2.04818517170509 9.1041992359398 0 0 0
309 3 18.00197508123659 0.21495298681562827 7.4048669113228875 0 0 0
310 2 19.796184891067675 2.023892646913161 7.358611376717014 0 0 0
311 1 19.789478787058144 0.26097579041682634 9.138048741891739 0 0 0
312 1 18.032932172592698 2.04227024783892 9.115605665669001 0 0 0
313 1 0.21489318221506104 3.797747806801224 7.331696786002297 0 0 0
314 3 2.016484388355903 5.504201838252631 7.389956486260655 0 0 0
315 2 2.017151627058191 3.7913328678780047 9.127983652018091 0 0 0
316 2 0.311454835206794 5.58659533728797 9.07706406250245 0 0 0
317 2 3.7797302585528123 3.8199117968550063 7.366344525572388 0 0 0
318 2 5.547850657347054 5.570779110790455 7.360420519082482 0 0 0
319 2 5.577703800351091 3.813308946731362 9.116602921006459 0 0 0
320 3 3.786198111510046 5.580656225069525 9.12287676577667 0 0 0
321 3 7.337056298812595 3.8144371994066844 7.418005349320774 0 0 0
322 2 9.16697594108506 5.594244093228667 7.35045226472946 0 0 0
323 3 9.146923763006543 3.7915964377562825 9.1180728935492 0 0 0
324 3 7.370185058684084 5.608757595746615 9.106941234141036 0 0 0
325 3 10.911687036611493 3.764205539004604 7.32774982236099 0 0 0
326 2 12.70363033249491 5.560808182227858 7.334266833862788 0 0 0
327 1 12.708033262808879 3.8094677055512642 9.109595136098363 0 0 0
328 3 10.898633091009911 5.595585857908891 9.120364570860806 0 0 0
329 1 14.506046912213577 3.806540714652238 7.308882461646932 0 0 0
330 1 16.26372834527956 5.584942158780051 7.351779862314291 0 0 0
331 2 16.279451649712996 3.8460607735584125 9.117311184871753 0 0 0
332 1 14.501396396897025 5.566960492884152 9.137809246308814 0 0 0
333 2 18.046614921509548 3.8172250299481423 7.317859630336379 0 0 0
334 2 19.81513639589487 5.5823853420124045 7.328622411895459 0 0 0
335 1 19.804484421738852 3.829238563172138 9.100305147473554 0 0 0
336 1 18.042675768031014 5.587293104421644 9.122480747437189 0 0 0
337 1 0.25351669365080587 7.351976698885111 7.343603950129545 0 0 0
338 3 2.010880434879767 9.139953103794777 7.339460079515377 0 0 0
339 2 2.035483957001548 7.332644490386879 9.117366566244574 0 0 0
340 1 0.24402748663601923 9.128309976683877 9.133869050526506 0 0 0
341 1 3.7729782081844885 7.355193029193404 7.346752851808221 0 0 0
342 1 5.5902195763505 9.140374681277653 7.332868778088675 0 0 0
343 2 5.591217008320539 7.363792637640443 9.138922936354296 0 0 0
344 1 3.7999574254745863 9.127385432701443 9.096948975287523 0 0 0
345 2 7.385115897614468 7.36140080013325 7.35956705757785 0 0 0
346 3 9.196978524059144 9.119311667272076 7.250523319107232 0 0 0
347 3 9.145687374698138 7.3971063832763635 9.115153396182842 0 0 0
348 3 7.3499067409585495 9.095328917724759 9.090722454644448 0 0 0
349 3 10.938595532346666 7.4084044166127185 7.308515038512052 0 0 0
350 2 12.708363463570258 9.140378232983924 7.345375434927005 0 0 0
351 1 12.70729568715594 7.34816269396167 9.11518616424935 0 0 0
352 1 10.943029715448732 9.139503952642315 9.122108275117583 0 0 0
353 1 14.478356966467514 7.338615197972198 7.34989718563982 0 0 0
354 3 16.228496645274205 9.09107508115102 7.3597712289463635 0 0 0
355 2 16.262203305271413 7.35319730800398 9.178778481494355 0 0 0
356 3 14.460840895385147 9.137970714614521 9.108694431102188 0 0 0
357 1 18.030919062704605 7.337382201728748 7.338397452941022 0 0 0
358 1 19.804875792437315 9.109200306128312 7.356442992952758 0 0 0
359 2 19.79649085440853 7.350459115213953 9.155500727656671 0 0 0
360 1 18.02024499510955 9.110680381373946 9.128567966047045 0 0 0
361 2 0.2553221971711995 10.900174494028581 7.342536532774611 0 0 0
362 3 1.996791270444749 12.699731272742847 7.368038403186447 0 0 0
363 1 2.0299619632184016 10.896060079442995 9.113220467434209 0 0 0
364 3 0.18915032092774436 12.669925455185988 9.137547870898352 0 0 0
365 3 3.8475714506542484 10.878766853051223 7.290891944430154 0 0 0
366 1 5.598465515146655 12.694307994115881 7.355205117092978 0 0 0
367 2 5.597795720185941 10.902783047071331 9.127774280289547 0 0 0
368 3 3.8406586331302366 12.687351078085289 9.119425748605504 0 0 0
369 1 7.381730084578392 10.891655223216233 7.329925585653659 0 0 0
370 1 9.18244522185062 12.696742637019778 7.342058553226072 0 0 0
371 1 9.144979993681838 10.869437071253879 9.11383153951951 0 0 0
372 1 7.400133378402855 12.661414448025825 9.129147719872082 0 0 0
373 2 10.935211857201105 10.896050790019366 7.339526764144162 0 0 0
374 3 12.691946436081029 12.563705352816159 7.293019045122793 0 0 0
375 2 12.726570464425631 10.89632064739102 9.134228578871028 0 0 0
376 1 10.93850383539798 12.662720209605485 9.127825576898468 0 0 0
377 2 14.499265943897159 10.8858895510415 7.376583882404613 0 0 0
378 3 16.234294748302 12.707131238420143 7.348359098235164 0 0 0
379 3 16.243630211753388 10.87989943730213 9.156058812574075 0 0 0
380 2 14.46512332065117 12.642343092723543 9.11444709519742 0 0 0
381 1 18.012906830126436 10.889919375721986 7.360833926194883 0 0 0
382 2 19.804815489702495 12.674337647893118 7.344672097386416 0 0 0
383 2 19.79559507885045 10.92978326232965 9.153755121841314 0 0 0
384 1 18.0102153944056 12.682985308826668 9.129794377564115 0 0 0
385 2 0.2516451279537156 14.457897475023008 7.3474517365942695 0 0 0
386 2 2.0235142435581097 16.221124409393752 7.356129977720402 0 0 0
387 1 2.0033093127579518 14.450482157139637 9.15439455881678 0 0 0
388 1 0.22897412595397726 16.240281214617326 9.126318552450526 0 0 0
389 3 3.792434373741648 14.474441852064896 7.388314754764037 0 0 0
390 1 5.580884745650787 16.22064027271839 7.387348598728228 0 0 0
391 3 5.5847194050483235 14.443072228997979 9.188298944797726 0 0 0
392 3 3.754185521779221 16.23200417393171 9.159548753567973 0 0 0
393 1 7.3918262269708315 14.456543698476942 7.367546335033184 0 0 0
394 2 9.17305179579053 16.24095479892838 7.3578414050538115 0 0 0
395 2 9.199233782712744 14.469066027795616 9.17063578852167 0 0 0
396 1 7.400272920976484 16.233279005238224 9.134304044520052 0 0 0
397 1 10.943703232187607 14.442895591163174 7.3557926703516685 0 0 0
398 1 12.710759192034532 16.25743008333371 7.361972108609852 0 0 0
399 1 12.688542314903042 14.435278234926654 9.133981561149438 0 0 0
400 1 10.941407672290996 16.237253701802597 9.146601750865251 0 0 0
401 1 14.436845719542886 14.442450572063175 7.352353041442053 0 0 0
402 2 16.227275996854576 16.23895156434458 7.371803981839384 0 0 0
403 3 16.19437876766514 14.47167607402303 9.131433511723833 0 0 0
404 2 14.466119301219186 16.239757986164555 9.134342575657445 0 0 0
405 2 18.007959262024343 14.467239098252833 7.3625890087343215 0 0 0
406 3 19.800899687383634 16.242211654381396 7.358407841919361 0 0 0
407 3 19.800924963532847 14.445506833563629 9.124576576096555 0 0 0
408 3 18.008350437753307 16.225015074807533 9.104143943204544 0 0 0
409 2 0.20150329721262447 18.03252802261616 7.342304615262914 0 0 0
410 2 2.028575283260495 19.80805845142692 7.338087523226993 0 0 0
411 2 2.009711703198039 18.02553062170537 9.14844047842881 0 0 0
412 1 0.23677546621707735 19.814993668872688 9.120977624109152 0 0 0
413 1 3.7918028433800113 18.00155447713745 7.374193847551935 0 0 0
414 3 5.534396402492749 19.776605930508612 7.321625603085269 0 0 0
415 1 5.587444407280284 18.022107774964624 9.125372853421402 0 0 0
416 2 3.768185576946397 19.78209999242088 9.128994000644406 0 0 0
417 1 7.384114381848874 18.023708565888963 7.381463617333065 0 0 0
418 2 9.164579358258846 19.775206501233065 7.3082738565666405 0 0 0
419 2 9.170925195311021 18.024657894567753 9.208896511289165 0 0 0
420 1 7.362077121550505 19.805222620991554 9.129063519488687 0 0 0
421 2 10.901306119227884 18.032854995051217 7.336472515234898 0 0 0
422 1 12.7235509530529 19.804860225543173 7.3627781627889535 0 0 0
423 2 12.676350587287336 18.027080103604618 9.138630994499486 0 0 0
424 1 10.928492295645126 19.840345000800223 9.083665831523978 0 0 0
425 3 14.494350796739294 18.02908322466333 7.428526163319417 0 0 0
426 1 16.233568175627436 19.828179323796963 7.359951448597004 0 0 0
427 2 16.2516762605968 18.023012139424303 9.148277959203517 0 0 0
428 2 14.500244441819413 19.80107186880604 9.151670468048415 0 0 0
429 3 18.002920222156735 18.047988067102445 7.379890968553903 0 0 0
430 2 19.757798900071418 19.799625203930013 7.352748483332512 0 0 0
431 2 19.786388120747695 18.030470932203233 9.120491670517781 0 0 0
432 3 17.99426970934844 19.79435876152253 9.147538918406417 0 0 0
433 2 0.28163099433470556 0.22141773409074417 10.917317337332406 0 0 0
434 3 2.014428213436732 2.0398436027591145 10.817768824444569 0 0 0
435 2 2.0326884396873934 0.25987831265667916 12.68014549947535 0 0 0
436 1 0.24082414708009653 2.0162840768844617 12.656852423182961 0 0 0
437 2 3.7675772708303374 0.27585312682914037 10.907412901121345 0 0 0
438 1 5.559334871950504 2.028846203427036 10.881567074834622 0 0 0
439 3 5.520299647952559 0.2708842374168345 12.689594650435035 0 0 0
440 1 3.7726311639604417 2.0752338450093717 12.655797665515939 0 0 0
441 3 7.3696347160219595 0.2958162144541699 10.916402817019872 0 0 0