ITEM: TIMESTEP
0
ITEM: NUMBER OF ATOMS
864
ITEM: BOX BOUNDS pp pp pp
0.0000000000000000e+00 2.1120000000000001e+01
0.0000000000000000e+00 2.1120000000000001e+01
0.0000000000000000e+00 2.1120000000000001e+01
ITEM: ATOMS id type x y z c_1[1] c_1[2] c_1[3] c_1[4] c_1[5] c_1[6]
1 3 3.52000000000000e-01 3.52000000000000e-01 3.52000000000000e-01 6.751e+05 9.526e+04 -2.553e+05 8.213e+04 -1.985e+05 3.843e+04
2 2 2.11200000000000e+00 2.11200000000000e+00 3.52000000000000e-01 -3.495e+05 -5.179e+05 -1.729e+04 2.168e+05 3.986e+04 -1.047e+04
3 2 2.11200000000000e+00 3.52000000000000e-01 2.11200000000000e+00 -6.003e+05 -6.562e+05 -8.675e+05 7.361e+04 9.766e+04 -4.364e+04
4 2 3.52000000000000e-01 2.11200000000000e+00 2.11200000000000e+00 -9.529e+04 -4.355e+05 -7.725e+05 -4.073e+04 7.313e+04 2.553e+05
5 2 3.87200000000000e+00 3.52000000000000e-01 3.52000000000000e-01 1.371e+05 -6.134e+05 -1.163e+04 -1.765e+04 -1.240e+05 -2.668e+04
6 2 5.63200000000000e+00 2.11200000000000e+00 3.52000000000000e-01 -6.723e+05 -2.565e+05 -5.331e+05 3.619e+04 -3.239e+04 1.890e+05
7 3 5.63200000000000e+00 3.52000000000000e-01 2.11200000000000e+00 1.044e+05 -2.527e+05 -3.643e+04 7.199e+04 2.355e+05 -1.977e+05
8 3 3.87200000000000e+00 2.11200000000000e+00 2.11200000000000e+00 1.547e+05 6.501e+05 3.546e+05 3.751e+05 1.948e+04 9.445e+04
9 3 7.39200000000000e+00 3.52000000000000e-01 3.52000000000000e-01 -4.133e+05 -8.365e+05 -3.003e+05 -4.382e+05 1.205e+05 1.983e+05
10 1 9.15200000000000e+00 2.11200000000000e+00 3.52000000000000e-01 -1.904e+06 -2.121e+06 -2.077e+06 -2.734e+03 6.536e+04 -1.985e+05
11 2 9.15200000000000e+00 3.52000000000000e-01 2.11200000000000e+00 -6.162e+05 -6.065e+05 -4.535e+05 -1.357e+04 4.198e+04 8.427e+04
12 1 7.39200000000000e+00 2.11200000000000e+00 2.11200000000000e+00 -1.884e+06 -2.159e+06 -1.951e+06 -2.907e+04 4.491e+04 -2.806e+05
13 3 1.09120000000000e+01 3.52000000000000e-01 3.52000000000000e-01 -4.646e+05 -4.099e+05 -1.415e+05 3.729e+05 -4.129e+05 -1.260e+05
14 3 1.26720000000000e+01 2.11200000000000e+00 3.52000000000000e-01 4.201e+05 1.977e+04 3.503e+05 2.005e+05 2.778e+05 5.799e+04
15 1 1.26720000000000e+01 3.52000000000000e-01 2.11200000000000e+00 -1.963e+06 -2.033e+06 -1.991e+06 2.662e+04 1.321e+05 -4.447e+04
16 1 1.09120000000000e+01 2.11200000000000e+00 2.11200000000000e+00 -1.822e+06 -1.802e+06 -1.671e+06 1.962e+04 -1.164e+05 2.484e+04
17 1 1.44320000000000e+01 3.52000000000000e-01 3.52000000000000e-01 -2.009e+06 -1.890e+06 -1.777e+06 -4.857e+04 -6.985e+04 1.740e+05
18 2 1.61920000000000e+01 2.11200000000000e+00 3.52000000000000e-01 -5.093e+05 -7.678e+05 -7.324e+05 -9.287e+03 4.244e+04 3.318e+04
19 3 1.61920000000000e+01 3.52000000000000e-01 2.11200000000000e+00 3.565e+05 5.497e+04 -8.898e+04 8.606e+04 -4.353e+05 -9.882e+04
20 2 1.44320000000000e+01 2.11200000000000e+00 2.11200000000000e+00 -4.298e+05 -7.573e+05 -1.408e+05 -1.607e+05 -3.453e+04 -3.142e+05
21 2 1.79520000000000e+01 3.52000000000000e-01 3.52000000000000e-01 -6.263e+05 -7.656e+05 -5.883e+05 6.162e+04 1.820e+04 -2.392e+03
22 2 1.97120000000000e+01 2.11200000000000e+00 3.52000000000000e-01 -8.409e+05 -5.736e+05 -7.221e+05 -6.048e+04 -7.352e+04 -8.305e+03
23 2 1.97120000000000e+01 3.52000000000000e-01 2.11200000000000e+00 -1.090e+06 -6.748e+05 -1.070e+06 -7.021e+04 -4.576e+04 -5.760e+04
24 2 1.79520000000000e+01 2.11200000000000e+00 2.11200000000000e+00 -6.588e+05 -3.065e+05 -3.428e+05 1.432e+05 3.368e+04 -8.109e+04
25 1 3.52000000000000e-01 3.87200000000000e+00 3.52000000000000e-01 -1.467e+06 -1.310e+06 -1.657e+06 6.716e+04 -1.157e+05 -7.464e+04
26 2 2.11200000000000e+00 5.63200000000000e+00 3.52000000000000e-01 1.031e+04 -1.704e+05 2.275e+05 -2.482e+05 3.231e+04 4.733e+04
27 2 2.11200000000000e+00 3.87200000000000e+00 2.11200000000000e+00 -1.767e+05 -1.574e+05 -4.258e+05 -1.962e+04 -1.132e+05 -9.765e+04
28 1 3.52000000000000e-01 5.63200000000000e+00 2.11200000000000e+00 -1.738e+06 -1.643e+06 -1.586e+06 1.532e+05 -1.705e+04 6.082e+04
29 2 3.87200000000000e+00 3.87200000000000e+00 3.52000000000000e-01 -5.155e+05 -1.823e+05 -4.151e+05 1.670e+05 -2.224e+03 -1.695e+05
30 3 5.63200000000000e+00 5.63200000000000e+00 3.52000000000000e-01 6.301e+05 6.422e+04 9.378e+05 -4.032e+04 -3.370e+05 -5.588e+05
31 2 5.63200000000000e+00 3.87200000000000e+00 2.11200000000000e+00 2.357e+03 -2.833e+05 -1.221e+05 2.286e+05 1.932e+05 -1.052e+05
32 2 3.87200000000000e+00 5.63200000000000e+00 2.11200000000000e+00 3.694e+05 1.649e+05 4.204e+05 -1.793e+05 -3.914e+05 2.100e+05
33 2 7.39200000000000e+00 3.87200000000000e+00 3.52000000000000e-01 -5.447e+05 -3.925e+05 -3.084e+05 -9.818e+04 -8.122e+04 2.595e+04
34 1 9.15200000000000e+00 5.63200000000000e+00 3.52000000000000e-01 -1.409e+06 -1.657e+06 -1.430e+06 8.668e+03 3.067e+04 6.018e+04
35 3 9.15200000000000e+00 3.87200000000000e+00 2.11200000000000e+00 3.410e+05 3.756e+04 4.684e+05 4.559e+05 -3.735e+04 -2.623e+05
36 3 7.39200000000000e+00 5.63200000000000e+00 2.11200000000000e+00 7.964e+04 -1.308e+05 -4.859e+05 6.190e+05 1.072e+05 -8.805e+04
37 2 1.09120000000000e+01 3.87200000000000e+00 3.52000000000000e-01 -1.373e+05 -2.564e+05 -6.869e+05 -1.699e+05 -1.840e+05 1.039e+05
38 3 1.26720000000000e+01 5.63200000000000e+00 3.52000000000000e-01 7.602e+04 5.871e+04 4.394e+05 2.078e+05 -4.180e+05 4.639e+04
39 1 1.26720000000000e+01 3.87200000000000e+00 2.11200000000000e+00 -1.601e+06 -1.843e+06 -1.782e+06 -1.225e+05 -1.073e+05 4.706e+04
40 2 1.09120000000000e+01 5.63200000000000e+00 2.11200000000000e+00 -3.664e+05 -2.555e+05 -4.322e+05 2.846e+05 -3.173e+05 -1.052e+05
41 3 1.44320000000000e+01 3.87200000000000e+00 3.52000000000000e-01 5.258e+05 1.017e+06 3.223e+05 -6.591e+04 4.297e+05 -2.272e+05
42 1 1.61920000000000e+01 5.63200000000000e+00 3.52000000000000e-01 -1.953e+06 -1.913e+06 -1.821e+06 3.532e+04 1.479e+05 -7.855e+04
43 2 1.61920000000000e+01 3.87200000000000e+00 2.11200000000000e+00 1.628e+05 -2.053e+05 -1.089e+05 1.295e+05 7.676e+04 1.162e+05
44 1 1.44320000000000e+01 5.63200000000000e+00 2.11200000000000e+00 -2.144e+06 -2.203e+06 -2.210e+06 -1.357e+04 -4.996e+04 7.234e+04
45 3 1.79520000000000e+01 3.87200000000000e+00 3.52000000000000e-01 -1.661e+05 4.842e+05 5.169e+05 -4.120e+04 -3.795e+05 -3.882e+05
46 2 1.97120000000000e+01 5.63200000000000e+00 3.52000000000000e-01 -4.958e+05 -5.656e+05 -3.385e+05 7.993e+04 -3.834e+04 -1.879e+05
47 3 1.97120000000000e+01 3.87200000000000e+00 2.11200000000000e+00 6.550e+05 7.563e+05 5.860e+05 -2.565e+05 -1.468e+05 -6.168e+04
48 2 1.79520000000000e+01 5.63200000000000e+00 2.11200000000000e+00 -6.929e+05 -2.353e+05 -3.365e+05 -2.698e+05 -4.024e+04 6.136e+04
49 2 3.52000000000000e-01 7.39200000000000e+00 3.52000000000000e-01 9.627e+04 6.645e+03 -1.078e+05 1.861e+05 3.155e+05 2.554e+05
50 3 2.11200000000000e+00 9.15200000000000e+00 3.52000000000000e-01 3.682e+05 1.480e+06 9.838e+05 2.421e+05 -3.787e+05 -1.826e+05
51 2 2.11200000000000e+00 7.39200000000000e+00 2.11200000000000e+00 -2.977e+05 -1.112e+05 1.722e+04 -2.276e+05 1.002e+04 -3.975e+04
52 2 3.52000000000000e-01 9.15200000000000e+00 2.11200000000000e+00 -1.215e+05 -1.938e+05 1.448e+05 -4.611e+04 -1.580e+05 -8.198e+04
53 1 3.87200000000000e+00 7.39200000000000e+00 3.52000000000000e-01 -1.582e+06 -1.387e+06 -1.486e+06 -3.935e+04 -3.392e+04 -5.317e+04
54 1 5.63200000000000e+00 9.15200000000000e+00 3.52000000000000e-01 -1.674e+06 -1.648e+06 -1.697e+06 -1.083e+05 9.904e+04 -2.090e+04
55 1 5.63200000000000e+00 7.39200000000000e+00 2.11200000000000e+00 -1.465e+06 -1.535e+06 -1.745e+06 2.671e+05 -1.616e+05 2.089e+05
56 1 3.87200000000000e+00 9.15200000000000e+00 2.11200000000000e+00 -1.680e+06 -1.620e+06 -1.498e+06 3.315e+04 2.040e+05 -1.166e+05
57 1 7.39200000000000e+00 7.39200000000000e+00 3.52000000000000e-01 -1.840e+06 -1.898e+06 -1.898e+06 8.276e+04 -5.719e+04 1.311e+05
58 1 9.15200000000000e+00 9.15200000000000e+00 3.52000000000000e-01 -2.126e+06 -2.221e+06 -1.932e+06 1.881e+05 -8.930e+04 2.283e+04
59 1 9.15200000000000e+00 7.39200000000000e+00 2.11200000000000e+00 -1.903e+06 -1.706e+06 -1.747e+06 -8.164e+04 -2.975e+04 9.832e+04
60 2 7.39200000000000e+00 9.15200000000000e+00 2.11200000000000e+00 -2.315e+05 2.801e+05 -1.679e+05 -2.268e+05 7.915e+04 2.952e+05
61 3 1.09120000000000e+01 7.39200000000000e+00 3.52000000000000e-01 -4.089e+05 -2.172e+05 -3.355e+05 2.299e+05 5.910e+04 -3.162e+05
62 3 1.26720000000000e+01 9.15200000000000e+00 3.52000000000000e-01 -5.651e+05 -7.356e+05 -5.480e+05 -1.517e+05 1.807e+05 -2.332e+05
63 1 1.26720000000000e+01 7.39200000000000e+00 2.11200000000000e+00 -1.780e+06 -1.913e+06 -1.761e+06 -1.419e+05 -7.727e+04 -3.946e+03
64 3 1.09120000000000e+01 9.15200000000000e+00 2.11200000000000e+00 4.204e+05 -1.379e+05 5.253e+05 -2.847e+04 -4.853e+05 -4.856e+05
65 2 1.44320000000000e+01 7.39200000000000e+00 3.52000000000000e-01 -5.807e+05 -8.280e+05 -7.837e+05 -4.673e+03 4.645e+04 1.591e+04
66 1 1.61920000000000e+01 9.15200000000000e+00 3.52000000000000e-01 -2.180e+06 -2.200e+06 -2.283e+06 1.443e+05 -7.544e+04 -2.067e+04
67 3 1.61920000000000e+01 7.39200000000000e+00 2.11200000000000e+00 -2.963e+04 -3.446e+05 4.968e+05 -4.060e+05 3.761e+05 4.220e+04
68 1 1.44320000000000e+01 9.15200000000000e+00 2.11200000000000e+00 -2.151e+06 -1.948e+06 -2.017e+06 -1.187e+05 -5.768e+04 4.164e+04
69 3 1.79520000000000e+01 7.39200000000000e+00 3.52000000000000e-01 4.489e+05 9.491e+04 5.311e+05 -1.120e+05 2.585e+05 -8.614e+04
70 2 1.97120000000000e+01 9.15200000000000e+00 3.52000000000000e-01 1.194e+05 -4.975e+05 -6.675e+05 -3.588e+04 8.001e+04 4.393e+04
71 1 1.97120000000000e+01 7.39200000000000e+00 2.11200000000000e+00 -1.497e+06 -1.804e+06 -1.628e+06 8.146e+04 -2.909e+04 -8.625e+04
72 3 1.79520000000000e+01 9.15200000000000e+00 2.11200000000000e+00 -2.433e+05 -5.708e+05 3.531e+05 -2.007e+05 -5.668e+04 2.073e+05
73 2 3.52000000000000e-01 1.09120000000000e+01 3.52000000000000e-01 1.981e+05 4.986e+04 -4.755e+05 -3.852e+04 8.838e+04 -1.659e+05
74 2 2.11200000000000e+00 1.26720000000000e+01 3.52000000000000e-01 -3.136e+05 2.909e+05 -3.852e+04 -3.538e+05 1.650e+04 -6.533e+04
75 2 2.11200000000000e+00 1.09120000000000e+01 2.11200000000000e+00 -4.463e+05 -3.356e+05 -1.216e+05 4.279e+04 -1.846e+05 1.864e+05
76 1 3.52000000000000e-01 1.26720000000000e+01 2.11200000000000e+00 -1.897e+06 -1.706e+06 -1.564e+06 -9.154e+04 8.820e+04 9.701e+04
77 3 3.87200000000000e+00 1.09120000000000e+01 3.52000000000000e-01 4.961e+05 -1.067e+05 3.412e+05 -1.229e+05 -1.494e+05 -2.416e+05
78 3 5.63200000000000e+00 1.26720000000000e+01 3.52000000000000e-01 -4.745e+05 -1.162e+06 -9.362e+05 -2.316e+05 -7.200e+04 1.210e+05
79 3 5.63200000000000e+00 1.09120000000000e+01 2.11200000000000e+00 2.417e+05 -2.312e+05 5.172e+05 -1.990e+05 -2.147e+05 -9.841e+04
80 1 3.87200000000000e+00 1.26720000000000e+01 2.11200000000000e+00 -1.986e+06 -1.835e+06 -1.772e+06 -1.770e+05 1.151e+05 -1.011e+05
81 1 7.39200000000000e+00 1.09120000000000e+01 3.52000000000000e-01 -1.618e+06 -1.742e+06 -1.715e+06 2.075e+05 -1.797e+04 6.425e+04
82 2 9.15200000000000e+00 1.26720000000000e+01 3.52000000000000e-01 -2.165e+05 -7.421e+05 -4.692e+05 -6.436e+04 -2.221e+03 -1.217e+05
83 1 9.15200000000000e+00 1.09120000000000e+01 2.11200000000000e+00 -1.214e+06 -1.355e+06 -1.423e+06 1.152e+05 -3.138e+05 -1.311e+05
84 3 7.39200000000000e+00 1.26720000000000e+01 2.11200000000000e+00 -6.377e+05 4.315e+04 -2.207e+05 -2.091e+05 -3.028e+05 -3.239e+05
85 2 1.09120000000000e+01 1.09120000000000e+01 3.52000000000000e-01 -2.778e+05 -1.952e+05 -5.752e+05 -5.745e+03 1.566e+04 -1.612e+05
86 3 1.26720000000000e+01 1.26720000000000e+01 3.52000000000000e-01 3.068e+05 5.404e+05 -4.160e+05 4.762e+03 2.770e+05 3.476e+05
87 1 1.26720000000000e+01 1.09120000000000e+01 2.11200000000000e+00 -1.706e+06 -1.946e+06 -1.803e+06 2.626e+04 -2.818e+04 -3.757e+04
88 1 1.09120000000000e+01 1.26720000000000e+01 2.11200000000000e+00 -1.510e+06 -1.468e+06 -1.598e+06 2.685e+05 -1.383e+05 4.958e+04
89 3 1.44320000000000e+01 1.09120000000000e+01 3.52000000000000e-01 -4.205e+05 -5.452e+05 -3.046e+05 1.736e+04 1.449e+04 -1.486e+05
90 1 1.61920000000000e+01 1.26720000000000e+01 3.52000000000000e-01 -1.658e+06 -1.532e+06 -1.680e+06 -6.802e+04 -2.458e+05 -7.115e+04
91 3 1.61920000000000e+01 1.09120000000000e+01 2.11200000000000e+00 -6.968e+05 -7.978e+05 1.425e+05 -3.662e+04 2.946e+04 1.169e+05
92 3 1.44320000000000e+01 1.26720000000000e+01 2.11200000000000e+00 8.255e+04 8.961e+05 6.517e+05 -1.551e+05 4.240e+05 1.071e+05
93 3 1.79520000000000e+01 1.09120000000000e+01 3.52000000000000e-01 -6.151e+04 2.350e+05 4.976e+05 -1.478e+05 3.613e+05 4.958e+04
94 1 1.97120000000000e+01 1.26720000000000e+01 3.52000000000000e-01 -1.775e+06 -1.657e+06 -1.945e+06 -9.913e+04 1.429e+04 1.413e+05
95 1 1.97120000000000e+01 1.09120000000000e+01 2.11200000000000e+00 -1.766e+06 -1.952e+06 -1.829e+06 -1.682e+05 4.218e+03 1.055e+05
96 1 1.79520000000000e+01 1.26720000000000e+01 2.11200000000000e+00 -1.914e+06 -1.650e+06 -1.834e+06 1.376e+04 -4.523e+03 9.376e+04
97 3 3.52000000000000e-01 1.44320000000000e+01 3.52000000000000e-01 5.424e+05 6.394e+05 4.868e+05 -3.823e+05 -1.130e+04 1.086e+05
98 2 2.11200000000000e+00 1.61920000000000e+01 3.52000000000000e-01 -6.322e+05 -4.451e+05 -5.530e+05 1.108e+05 1.761e+05 1.347e+05
99 2 2.11200000000000e+00 1.44320000000000e+01 2.11200000000000e+00 -6.062e+05 -4.741e+05 -2.462e+05 1.430e+05 -7.233e+04 -1.988e+05
100 2 3.52000000000000e-01 1.61920000000000e+01 2.11200000000000e+00 -1.125e+05 4.499e+04 7.993e+03 -8.909e+03 -2.177e+05 2.659e+05
101 2 3.87200000000000e+00 1.44320000000000e+01 3.52000000000000e-01 -7.647e+04 -5.492e+05 -6.464e+05 -6.660e+04 -3.010e+03 1.527e+05
102 3 5.63200000000000e+00 1.61920000000000e+01 3.52000000000000e-01 -9.588e+04 -5.517e+05 -2.232e+05 3.978e+05 -5.484e+05 2.265e+05
103 1 5.63200000000000e+00 1.44320000000000e+01 2.11200000000000e+00 -2.146e+06 -2.171e+06 -2.263e+06 -7.550e+04 3.588e+04 -1.562e+05
104 3 3.87200000000000e+00 1.61920000000000e+01 2.11200000000000e+00 3.620e+05 -8.256e+04 -1.099e+05 -3.438e+05 2.814e+05 8.903e+05
105 3 7.39200000000000e+00 1.44320000000000e+01 3.52000000000000e-01 -8.425e+05 -5.924e+05 -1.035e+06 4.177e+05 -1.237e+04 -1.060e+05
106 2 9.15200000000000e+00 1.61920000000000e+01 3.52000000000000e-01 -4.595e+05 -7.785e+05 -7.696e+05 2.813e+05 -7.766e+03 1.317e+05
107 1 9.15200000000000e+00 1.44320000000000e+01 2.11200000000000e+00 -1.796e+06 -1.666e+06 -1.655e+06 -1.698e+05 9.629e+03 -7.940e+04
108 3 7.39200000000000e+00 1.61920000000000e+01 2.11200000000000e+00 4.430e+04 -2.770e+05 3.295e+05 3.577e+05 -5.293e+05 5.229e+05
109 2 1.09120000000000e+01 1.44320000000000e+01 3.52000000000000e-01 -2.771e+05 -3.629e+05 -6.125e+05 -1.943e+04 2.568e+05 -7.347e+03
110 2 1.26720000000000e+01 1.61920000000000e+01 3.52000000000000e-01 -4.051e+05 -3.360e+04 -3.454e+05 -1.439e+05 6.566e+04 2.454e+04
111 2 1.26720000000000e+01 1.44320000000000e+01 2.11200000000000e+00 -5.238e+05 -1.819e+05 -5.304e+05 -1.758e+05 9.695e+04 2.068e+05
112 2 1.09120000000000e+01 1.61920000000000e+01 2.11200000000000e+00 -2.742e+05 -7.563e+04 -1.121e+05 -8.777e+04 -1.128e+05 1.895e+05
113 2 1.44320000000000e+01 1.44320000000000e+01 3.52000000000000e-01 -5.783e+05 -2.110e+05 -4.912e+05 1.075e+05 -1.659e+05 -9.723e+04
114 2 1.61920000000000e+01 1.61920000000000e+01 3.52000000000000e-01 -2.715e+05 -5.288e+05 -6.003e+05 8.688e+04 1.128e+05 4.119e+05
115 1 1.61920000000000e+01 1.44320000000000e+01 2.11200000000000e+00 -1.562e+06 -1.621e+06 -1.483e+06 1.483e+05 -3.237e+04 -7.139e+04
116 2 1.44320000000000e+01 1.61920000000000e+01 2.11200000000000e+00 1.766e+05 2.150e+05 -5.108e+04 8.976e+04 -2.264e+04 1.089e+05
117 2 1.79520000000000e+01 1.44320000000000e+01 3.52000000000000e-01 -4.522e+05 -2.163e+05 -5.517e+05 -8.608e+04 -1.245e+05 3.429e+05
118 1 1.97120000000000e+01 1.61920000000000e+01 3.52000000000000e-01 -1.637e+06 -1.817e+06 -1.971e+06 1.333e+05 1.170e+05 -1.014e+05
119 1 1.97120000000000e+01 1.44320000000000e+01 2.11200000000000e+00 -1.745e+06 -1.957e+06 -1.757e+06 5.714e+04 1.008e+05 8.493e+04
120 3 1.79520000000000e+01 1.61920000000000e+01 2.11200000000000e+00 4.919e+05 -1.534e+05 4.223e+04 1.556e+05 2.855e+05 2.106e+05
121 2 3.52000000000000e-01 1.79520000000000e+01 3.52000000000000e-01 -4.135e+05 2.164e+05 -2.571e+05 -2.042e+05 8.176e+04 1.527e+05
122 2 2.11200000000000e+00 1.97120000000000e+01 3.52000000000000e-01 -5.984e+05 -7.301e+05 -9.089e+05 1.206e+05 1.432e+05 -3.920e+04
123 2 2.11200000000000e+00 1.79520000000000e+01 2.11200000000000e+00 -4.329e+05 -5.240e+05 -2.644e+05 -5.678e+04 4.136e+04 -6.488e+04
124 3 3.52000000000000e-01 1.97120000000000e+01 2.11200000000000e+00 1.111e+04 2.483e+05 -4.427e+05 -7.158e+04 7.667e+04 1.152e+05
125 1 3.87200000000000e+00 1.79520000000000e+01 3.52000000000000e-01 -2.148e+06 -2.167e+06 -1.963e+06 -4.148e+04 6.074e+04 -5.322e+04
126 1 5.63200000000000e+00 1.97120000000000e+01 3.52000000000000e-01 -1.908e+06 -1.959e+06 -2.115e+06 -3.276e+04 1.221e+04 3.856e+04
127 1 5.63200000000000e+00 1.79520000000000e+01 2.11200000000000e+00 -1.867e+06 -2.083e+06 -2.140e+06 -8.607e+04 -6.276e+04 7.240e+04
128 3 3.87200000000000e+00 1.97120000000000e+01 2.11200000000000e+00 1.577e+04 3.679e+04 -4.085e+04 1.553e+05 4.567e+05 -7.953e+05
129 1 7.39200000000000e+00 1.79520000000000e+01 3.52000000000000e-01 -2.048e+06 -2.071e+06 -2.197e+06 -7.527e+04 1.258e+05 -1.291e+05
130 3 9.15200000000000e+00 1.97120000000000e+01 3.52000000000000e-01 -1.080e+06 -4.706e+05 -3.481e+05 1.147e+05 -1.572e+05 2.876e+04
131 2 9.15200000000000e+00 1.79520000000000e+01 2.11200000000000e+00 -6.269e+05 -6.799e+05 -5.516e+05 1.733e+05 4.924e+04 3.470e+04
132 1 7.39200000000000e+00 1.97120000000000e+01 2.11200000000000e+00 -2.165e+06 -1.963e+06 -2.003e+06 7.046e+04 6.004e+04 9.739e+04
133 3 1.09120000000000e+01 1.79520000000000e+01 3.52000000000000e-01 2.318e+05 -2.336e+05 -1.513e+05 -1.209e+05 7.875e+04 -4.239e+05
134 1 1.26720000000000e+01 1.97120000000000e+01 3.52000000000000e-01 -2.126e+06 -1.958e+06 -2.243e+06 -1.241e+05 -1.251e+05 4.361e+04
135 3 1.26720000000000e+01 1.79520000000000e+01 2.11200000000000e+00 1.056e+05 -1.331e+05 -4.065e+05 -1.424e+05 -8.998e+04 9.739e+04
136 3 1.09120000000000e+01 1.97120000000000e+01 2.11200000000000e+00 -6.997e+05 -4.988e+05 -1.002e+06 2.353e+04 7.580e+04 1.039e+05
137 2 1.44320000000000e+01 1.79520000000000e+01 3.52000000000000e-01 -2.071e+05 -8.500e+05 -3.109e+05 5.158e+04 8.053e+04 4.132e+04
138 1 1.61920000000000e+01 1.97120000000000e+01 3.52000000000000e-01 -2.117e+06 -2.078e+06 -2.224e+06 8.898e+04 -8.078e+03 1.506e+05
139 3 1.61920000000000e+01 1.79520000000000e+01 2.11200000000000e+00 -6.478e+05 -6.312e+05 -5.533e+05 5.558e+05 3.502e+05 -1.242e+04
140 3 1.44320000000000e+01 1.97120000000000e+01 2.11200000000000e+00 -6.975e+05 2.685e+05 -4.004e+05 -4.002e+04 -1.056e+04 2.066e+05
141 3 1.79520000000000e+01 1.79520000000000e+01 3.52000000000000e-01 -8.795e+04 -3.304e+05 -6.680e+05 2.774e+05 -3.644e+05 -7.156e+04
142 3 1.97120000000000e+01 1.97120000000000e+01 3.52000000000000e-01 -6.113e+05 -1.692e+05 -7.939e+05 -5.288e+05 -3.722e+04 3.146e+05
143 1 1.97120000000000e+01 1.79520000000000e+01 2.11200000000000e+00 -2.296e+06 -2.396e+06 -2.321e+06 1.945e+04 2.353e+04 -4.589e+04
144 3 1.79520000000000e+01 1.97120000000000e+01 2.11200000000000e+00 -1.623e+06 -1.124e+06 -1.177e+06 2.338e+05 -1.763e+05 -6.717e+05
145 1 3.52000000000000e-01 3.52000000000000e-01 3.87200000000000e+00 -1.833e+06 -1.767e+06 -1.704e+06 -5.195e+04 1.140e+05 1.395e+04
146 3 2.11200000000000e+00 2.11200000000000e+00 3.87200000000000e+00 3.386e+05 2.575e+05 4.949e+05 4.264e+05 -4.270e+04 1.627e+05
147 3 2.11200000000000e+00 3.52000000000000e-01 5.63200000000000e+00 4.834e+05 5.237e+05 -2.574e+05 7.337e+04 -1.360e+05 -1.295e+05
148 2 3.52000000000000e-01 2.11200000000000e+00 5.63200000000000e+00 -3.746e+05 -4.740e+05 -6.018e+05 -2.159e+05 -2.598e+05 -2.664e+05
149 1 3.87200000000000e+00 3.52000000000000e-01 3.87200000000000e+00 -2.370e+06 -2.341e+06 -2.370e+06 -1.694e+05 1.844e+05 5.448e+04
150 3 5.63200000000000e+00 2.11200000000000e+00 3.87200000000000e+00 -3.613e+05 -8.213e+04 -4.382e+05 -2.040e+05 5.010e+04 -5.130e+05
151 2 5.63200000000000e+00 3.52000000000000e-01 5.63200000000000e+00 -8.292e+05 -3.026e+05 -2.599e+05 1.762e+05 -4.880e+04 1.137e+03
152 1 3.87200000000000e+00 2.11200000000000e+00 5.63200000000000e+00 -1.664e+06 -1.879e+06 -1.723e+06 -2.101e+05 7.592e+04 -1.807e+05
153 2 7.39200000000000e+00 3.52000000000000e-01 3.87200000000000e+00 -2.855e+05 -6.377e+05 -6.076e+05 -1.767e+05 5.288e+04 -7.817e+04
154 2 9.15200000000000e+00 2.11200000000000e+00 3.87200000000000e+00 -9.199e+04 1.199e+05 -6.944e+05 -8.652e+04 1.208e+05 -2.399e+05
155 2 9.15200000000000e+00 3.52000000000000e-01 5.63200000000000e+00 -5.012e+05 4.384e+04 -7.206e+05 -2.264e+04 2.007e+05 1.109e+05
156 1 7.39200000000000e+00 2.11200000000000e+00 5.63200000000000e+00 -1.960e+06 -2.109e+06 -2.063e+06 -4.055e+04 -1.600e+05 -2.777e+04
157 1 1.09120000000000e+01 3.52000000000000e-01 3.87200000000000e+00 -1.729e+06 -2.002e+06 -1.900e+06 2.515e+04 -4.860e+04 -1.687e+05
158 3 1.26720000000000e+01 2.11200000000000e+00 3.87200000000000e+00 3.477e+05 1.368e+05 -3.324e+04 -3.253e+05 -2.741e+05 1.092e+05
159 1 1.26720000000000e+01 3.52000000000000e-01 5.63200000000000e+00 -1.540e+06 -1.697e+06 -1.669e+06 -2.827e+04 1.460e+03 -2.427e+05
160 3 1.09120000000000e+01 2.11200000000000e+00 5.63200000000000e+00 2.662e+05 3.962e+05 3.226e+05 3.515e+05 5.233e+04 2.748e+05
161 2 1.44320000000000e+01 3.52000000000000e-01 3.87200000000000e+00 -3.330e+05 -1.189e+04 -2.544e+05 -2.076e+05 -8.174e+04 3.767e+05
162 1 1.61920000000000e+01 2.11200000000000e+00 3.87200000000000e+00 -1.539e+06 -1.385e+06 -1.455e+06 1.321e+05 -1.060e+05 -1.049e+04
163 2 1.61920000000000e+01 3.52000000000000e-01 5.63200000000000e+00 -1.583e+05 -3.496e+05 -1.486e+05 -2.706e+05 1.426e+05 -1.786e+04
164 3 1.44320000000000e+01 2.11200000000000e+00 5.63200000000000e+00 4.999e+05 4.536e+05 2.133e+05 -2.734e+05 -2.066e+05 2.695e+05
165 3 1.79520000000000e+01 3.52000000000000e-01 3.87200000000000e+00 2.921e+05 1.473e+05 4.306e+05 6.365e+04 -9.456e+04 -3.712e+05
166 2 1.97120000000000e+01 2.11200000000000e+00 3.87200000000000e+00 -1.601e+05 -2.086e+05 -3.856e+05 -3.144e+04 1.050e+05 1.429e+05
167 1 1.97120000000000e+01 3.52000000000000e-01 5.63200000000000e+00 -1.537e+06 -1.589e+06 -1.607e+06 -2.202e+04 1.774e+04 2.278e+04
168 1 1.79520000000000e+01 2.11200000000000e+00 5.63200000000000e+00 -1.050e+06 -1.120e+06 -1.376e+06 9.770e+04 -4.029e+04 -4.890e+04
169 1 3.52000000000000e-01 3.87200000000000e+00 3.87200000000000e+00 -1.329e+06 -1.519e+06 -1.568e+06 5.055e+04 -5.531e+04 -3.682e+04
170 2 2.11200000000000e+00 5.63200000000000e+00 3.87200000000000e+00 -3.528e+05 5.871e+05 9.511e+04 -2.726e+05 -2.074e+05 -2.230e+04
171 2 2.11200000000000e+00 3.87200000000000e+00 5.63200000000000e+00 -1.658e+04 6.950e+04 -7.327e+04 2.240e+05 -1.004e+05 3.029e+05
172 1 3.52000000000000e-01 5.63200000000000e+00 5.63200000000000e+00 -1.324e+06 -1.348e+06 -1.507e+06 -3.662e+02 -1.462e+05 -1.698e+05
173 2 3.87200000000000e+00 3.87200000000000e+00 3.87200000000000e+00 -1.610e+05 -4.442e+05 -3.274e+05 -1.267e+04 8.328e+04 -1.041e+04
174 1 5.63200000000000e+00 5.63200000000000e+00 3.87200000000000e+00 -1.534e+06 -1.460e+06 -1.421e+06 -1.228e+05 8.413e+04 3.241e+03
175 3 5.63200000000000e+00 3.87200000000000e+00 5.63200000000000e+00 -6.287e+04 -7.359e+05 1.599e+05 1.615e+05 8.394e+04 3.065e+05
176 1 3.87200000000000e+00 5.63200000000000e+00 5.63200000000000e+00 -1.323e+06 -1.431e+06 -1.265e+06 2.113e+05 -7.336e+04 -1.877e+05
177 3 7.39200000000000e+00 3.87200000000000e+00 3.87200000000000e+00 -5.969e+05 -8.751e+05 -7.221e+05 -6.756e+04 5.266e+05 2.507e+05
178 3 9.15200000000000e+00 5.63200000000000e+00 3.87200000000000e+00 1.268e+05 2.766e+05 -1.171e+05 3.500e+05 -2.175e+05 3.186e+05
179 1 9.15200000000000e+00 3.87200000000000e+00 5.63200000000000e+00 -2.182e+06 -1.928e+06 -2.020e+06 -1.123e+05 -7.937e+04 -4.681e+04
180 3 7.39200000000000e+00 5.63200000000000e+00 5.63200000000000e+00 -3.331e+05 -2.484e+05 -4.191e+04 2.844e+05 -3.573e+03 3.172e+05
181 2 1.09120000000000e+01 3.87200000000000e+00 3.87200000000000e+00 -5.152e+05 -1.020e+06 -7.307e+05 -2.297e+05 3.179e+05 -1.771e+05
182 2 1.26720000000000e+01 5.63200000000000e+00 3.87200000000000e+00 -2.884e+05 3.223e+05 -2.125e+05 5.657e+04 2.745e+05 1.956e+04
183 3 1.26720000000000e+01 3.87200000000000e+00 5.63200000000000e+00 1.933e+05 2.884e+05 -5.070e+04 1.336e+05 -1.979e+05 -2.455e+05
184 1 1.09120000000000e+01 5.63200000000000e+00 5.63200000000000e+00 -1.994e+06 -2.100e+06 -1.955e+06 -7.455e+02 9.966e+03 9.563e+04
185 1 1.44320000000000e+01 3.87200000000000e+00 3.87200000000000e+00 -1.579e+06 -1.607e+06 -1.620e+06 3.836e+04 1.409e+05 4.731e+04
186 1 1.61920000000000e+01 5.63200000000000e+00 3.87200000000000e+00 -1.685e+06 -1.414e+06 -1.533e+06 -8.893e+04 2.031e+04 -9.408e+04
187 3 1.61920000000000e+01 3.87200000000000e+00 5.63200000000000e+00 1.266e+06 8.809e+05 6.083e+05 2.016e+05 -1.670e+05 1.120e+05
188 2 1.44320000000000e+01 5.63200000000000e+00 5.63200000000000e+00 -1.549e+05 3.113e+05 -8.320e+05 -7.081e+04 2.311e+04 -2.899e+05
189 2 1.79520000000000e+01 3.87200000000000e+00 3.87200000000000e+00 -2.829e+05 -5.267e+05 1.722e+05 -1.054e+05 -8.301e+04 1.274e+05
190 1 1.97120000000000e+01 5.63200000000000e+00 3.87200000000000e+00 -1.683e+06 -1.499e+06 -1.485e+06 1.448e+05 -1.296e+05 1.035e+05
191 3 1.97120000000000e+01 3.87200000000000e+00 5.63200000000000e+00 9.486e+05 5.105e+05 9.127e+05 -6.350e+05 1.531e+05 4.945e+05
192 2 1.79520000000000e+01 5.63200000000000e+00 5.63200000000000e+00 4.318e+04 6.198e+05 -4.104e+05 -4.280e+04 7.344e+04 -1.800e+05
193 3 3.52000000000000e-01 7.39200000000000e+00 3.87200000000000e+00 1.481e+06 6.024e+05 4.913e+05 -2.795e+05 -7.698e+04 -3.478e+04
194 2 2.11200000000000e+00 9.15200000000000e+00 3.87200000000000e+00 1.618e+04 5.809e+05 4.109e+05 6.388e+04 1.092e+05 -5.141e+04
195 2 2.11200000000000e+00 7.39200000000000e+00 5.63200000000000e+00 -4.911e+05 -2.247e+05 3.019e+04 4.532e+04 9.033e+04 -1.188e+04
196 2 3.52000000000000e-01 9.15200000000000e+00 5.63200000000000e+00 -1.021e+05 9.885e+03 -2.823e+05 -2.379e+05 1.730e+05 8.280e+04
197 2 3.87200000000000e+00 7.39200000000000e+00 3.87200000000000e+00 1.246e+05 -3.286e+05 -4.576e+05 8.866e+04 3.235e+03 2.767e+05
198 1 5.63200000000000e+00 9.15200000000000e+00 3.87200000000000e+00 -1.127e+06 -1.353e+06 -1.344e+06 3.091e+05 -1.284e+05 4.118e+04
199 1 5.63200000000000e+00 7.39200000000000e+00 5.63200000000000e+00 -1.626e+06 -1.642e+06 -1.800e+06 1.378e+04 1.489e+05 2.896e+04
200 2 3.87200000000000e+00 9.15200000000000e+00 5.63200000000000e+00 -3.230e+05 -2.819e+05 -2.544e+05 3.161e+05 -1.466e+05 1.844e+05
201 1 7.39200000000000e+00 7.39200000000000e+00 3.87200000000000e+00 -1.421e+06 -1.280e+06 -1.343e+06 -1.837e+03 3.294e+04 -1.076e+04
202 2 9.15200000000000e+00 9.15200000000000e+00 3.87200000000000e+00 6.485e+05 -6.604e+04 1.216e+05 -3.971e+05 -2.397e+05 -8.241e+02
203 2 9.15200000000000e+00 7.39200000000000e+00 5.63200000000000e+00 -2.049e+05 -2.154e+05 9.360e+03 1.629e+05 7.357e+04 7.404e+04
204 2 7.39200000000000e+00 9.15200000000000e+00 5.63200000000000e+00 -2.974e+05 -2.466e+05 1.217e+05 -2.088e+05 1.796e+05 -3.859e+05
205 2 1.09120000000000e+01 7.39200000000000e+00 3.87200000000000e+00 -4.235e+04 -3.839e+05 -1.906e+05 8.458e+04 2.531e+05 8.332e+04
206 3 1.26720000000000e+01 9.15200000000000e+00 3.87200000000000e+00 4.194e+05 2.102e+05 4.864e+05 7.027e+05 -2.053e+05 3.074e+05
207 3 1.26720000000000e+01 7.39200000000000e+00 5.63200000000000e+00 4.499e+05 4.966e+05 9.901e+04 -9.707e+04 -1.158e+05 4.239e+05
208 2 1.09120000000000e+01 9.15200000000000e+00 5.63200000000000e+00 -1.140e+05 -4.343e+05 -7.579e+04 4.170e+04 -1.724e+05 2.993e+04
209 3 1.44320000000000e+01 7.39200000000000e+00 3.87200000000000e+00 6.641e+05 1.647e+05 1.031e+05 4.872e+05 -8.938e+04 -2.422e+05
210 2 1.61920000000000e+01 9.15200000000000e+00 3.87200000000000e+00 -6.221e+05 -4.225e+05 -4.876e+05 -1.010e+05 1.258e+04 -9.852e+04
211 2 1.61920000000000e+01 7.39200000000000e+00 5.63200000000000e+00 -1.932e+05 -4.321e+05 -4.674e+05 8.707e+04 3.849e+04 3.176e+04
212 1 1.44320000000000e+01 9.15200000000000e+00 5.63200000000000e+00 -1.653e+06 -1.634e+06 -1.765e+06 -1.713e+05 5.353e+04 -3.940e+04
213 2 1.79520000000000e+01 7.39200000000000e+00 3.87200000000000e+00 5.678e+04 7.237e+04 3.104e+05 3.343e+04 1.917e+05 -4.077e+04
214 2 1.97120000000000e+01 9.15200000000000e+00 3.87200000000000e+00 -5.495e+05 -7.393e+05 -7.489e+05 6.253e+04 1.156e+05 -1.148e+04
215 2 1.97120000000000e+01 7.39200000000000e+00 5.63200000000000e+00 -1.351e+05 3.406e+05 -5.163e+05 9.702e+04 -1.273e+05 -3.133e+05
216 3 1.79520000000000e+01 9.15200000000000e+00 5.63200000000000e+00 4.359e+05 3.778e+05 -1.719e+05 -1.069e+05 -4.245e+04 1.036e+05
217 3 3.52000000000000e-01 1.09120000000000e+01 3.87200000000000e+00 -5.060e+04 -1.111e+05 2.975e+05 2.066e+04 -2.227e+04 1.372e+05
218 3 2.11200000000000e+00 1.26720000000000e+01 3.87200000000000e+00 2.248e+05 5.085e+05 5.729e+05 -2.446e+05 -1.638e+05 -5.034e+04
219 1 2.11200000000000e+00 1.09120000000000e+01 5.63200000000000e+00 -1.520e+06 -1.587e+06 -1.545e+06 -7.215e+04 -9.539e+04 -1.246e+05
220 3 3.52000000000000e-01 1.26720000000000e+01 5.63200000000000e+00 -5.152e+05 -3.281e+05 -5.942e+05 1.187e+05 -1.453e+05 -6.102e+04
221 2 3.87200000000000e+00 1.09120000000000e+01 3.87200000000000e+00 6.446e+05 -4.546e+05 3.695e+05 -7.113e+04 5.263e+04 -2.049e+04
222 1 5.63200000000000e+00 1.26720000000000e+01 3.87200000000000e+00 -1.329e+06 -1.423e+06 -1.373e+06 -3.480e+04 -3.995e+04 1.973e+05
223 2 5.63200000000000e+00 1.09120000000000e+01 5.63200000000000e+00 2.556e+05 -1.988e+05 2.343e+05 -1.670e+04 -6.012e+05 1.313e+05
224 2 3.87200000000000e+00 1.26720000000000e+01 5.63200000000000e+00 -4.874e+05 -1.498e+05 -1.052e+05 9.079e+04 7.236e+04 1.431e+05