

#print 'PATH IS ${INC}'
#--- include files
include ${INC}/initSoftWall.mod
include /home/kamran.karimi1/Project/git/vacancyDiffusion/simulations/lmpScripts/initSoftWall.mod
# NOTE: This script can be modified for different atomic structures,
# units, etc. See in.elastic for more info.
#

# Define the finite deformation size. Try several values of this
# variable to verify that results do not depend on it.
variable up equal 1.0e-6

# Define the amount of random jiggle for atoms
# This prevents atoms from staying on saddle points
variable atomjiggle equal 1.0e-5

# Uncomment one of these blocks, depending on what units
# you are using in LAMMPS and for output

# metal units, elastic constants in eV/A^3
#units		metal
#variable cfac equal 6.2414e-7
#variable cunits string eV/A^3

# metal units, elastic constants in GPa
units		metal
atom_style      atomic
variable cfac equal 1.0e-4
variable cunits string GPa

# real units, elastic constants in GPa
#units		real
#variable cfac equal 1.01325e-4
#variable cunits string GPa

# Define minimization parameters
variable etol equal 0.0
variable ftol equal 1.0e-03
variable maxiter equal 100000
variable maxeval equal 100000
variable dmax equal 1.0e-2

#---
boundary    	p p p
#---

#--- Need to set mass to something, just to satisfy LAMMPS
#mass 1 1.0e-20

#--- discretization time
variable            dt        equal     0.005         # Time step

#--- thermostat parameters
variable            damp_t    equal     100*${dt}     # Thermostat damping
variable            damp_t    equal     100*0.005     
variable            damp_p    equal     1000*${dt}    # Barostat damping
variable            damp_p    equal     1000*0.005    

atom_modify     map array
#include ${INC}/CreateBox.mod
read_data       Equilibrated_500.dat #conf.sw
Reading data file ...
  orthogonal box = (-0.16890032 -0.16890032 -0.16890032) to (21.288900 21.288900 21.288900)
  1 by 1 by 1 MPI processor grid
  reading atoms ...
  864 atoms
  reading velocities ...
  864 velocities
  read_data CPU = 0.005 seconds

include ${INC}/potential.mod
include /home/kamran.karimi1/Project/git/vacancyDiffusion/simulations/lmpScripts/potential.mod
# NOTE: This script can be modified for different pair styles
# See in.elastic for more info.

# Choose potential
pair_style	eam/alloy
pair_coeff              * * ${PathEam}/NiCoCr.lammps.eam Ni Co Cr
pair_coeff              * * /home/kamran.karimi1/Project/git/lammps2nd/lammps/potentials/NiCoCr.lammps.eam Ni Co Cr
#
#pair_style                eam
#pair_coeff                * * ${PathEam}/Ni_u3.eam



# Setup neighbor style
neighbor 1.0 nsq
neigh_modify once no every 1 delay 0 check yes

# Setup minimization style
min_style	     cg
min_modify	     dmax ${dmax} line quadratic
min_modify	     dmax 0.01 line quadratic

# Setup output
thermo		1000
#thermo_style custom step temp pe press pxx pyy pzz pxy pxz pyz lx ly lz vol
thermo_style custom step temp pe press pxy xy vol
thermo_modify norm no



# Pure Si crystal structure need to initialize lammps in kART!!!!!!!!!
# Need only to create the box not creating atoms!!!!!!!
#units		    metal
#atom_style      atomic

#------------ There are two methods to initialize coord in lammps  ---------------#
#      1) using a input file:

#      2) creating a box and putting atoms ramdomly in it by using lammps commands:
#region Box block 0 21.72  0 21.72  0 21.72 # iD, xlo xhi ylo yhi zlo zhi (this is box size)
#create_box      1 Box # 3 Box           # Number of atom types (this case 1), region-iD
#create_atoms    1 random 511 124675 Box # Type1, Number of atoms, seed, region-iD
#create_atoms    2 random 5  124676 Box # Type2, Number of atoms, seed, region-iD
#create_atoms    3 random 50 124677 Box # Type3, Number of atoms, seed, region-iD

#      3 ) Or creating the full cristalline box and then remove a atom

#lattice         diamond 5.430
#region          my_Box block 0 4  0 4  0 4 # iD, xlo xhi ylo yhi zlo zhi (this is box size)
#create_box      1 my_Box              # 3 Box           # Number of atom types (this case 1), region-iD
#create_atoms    1 box
#delete_atom     porosity fraction 1.0/512.0
#mass            1 28.0855



#----------------------------------------------------------------------------------#


#pair_style	comb
#pair_coeff	* * ffield.comb Si

#pair_style      sw
#pair_coeff * *  Si.sw Si

# Those lines increase the speed of calculating forces by a factor of almost 2:
#neighbor        0.0  bin # multi
# page must be x10 the value of one
#neigh_modify    delay 0 every 1 check no one 50 page 550 #binsize 0.1
#
#write_data ${WriteData}
run 0
WARNING: No fixes defined, atoms won't move (../verlet.cpp:55)
Neighbor list info ...
  update every 1 steps, delay 0 steps, check yes
  max neighbors/atom: 2000, page size: 100000
  master list distance cutoff = 6.88
  ghost atom cutoff = 6.88
  1 neighbor lists, perpetual/occasional/extra = 1 0 0
  (1) pair eam/alloy, perpetual
      attributes: half, newton on
      pair build: half/nsq/newton
      stencil: none
      bin: none
Per MPI rank memory allocation (min/avg/max) = 3.418 | 3.418 | 3.418 Mbytes
Step Temp PotEng Press Pxy Xy Volume 
       0    504.90665   -3679.5276    1036.8041   -170.89791            0    9879.9698 
Loop time of 9.23e-07 on 1 procs for 0 steps with 864 atoms

108.3% CPU use with 1 MPI tasks x no OpenMP threads

MPI task timing breakdown:
Section |  min time  |  avg time  |  max time  |%varavg| %total
---------------------------------------------------------------
Pair    | 0          | 0          | 0          |   0.0 |  0.00
Neigh   | 0          | 0          | 0          |   0.0 |  0.00
Comm    | 0          | 0          | 0          |   0.0 |  0.00
Output  | 0          | 0          | 0          |   0.0 |  0.00
Modify  | 0          | 0          | 0          |   0.0 |  0.00
Other   |            | 9.23e-07   |            |       |100.00

Nlocal:        864.000 ave         864 max         864 min
Histogram: 1 0 0 0 0 0 0 0 0 0
Nghost:        3026.00 ave        3026 max        3026 min
Histogram: 1 0 0 0 0 0 0 0 0 0
Neighs:        56129.0 ave       56129 max       56129 min
Histogram: 1 0 0 0 0 0 0 0 0 0

Total # of neighbors = 56129
Ave neighs/atom = 64.964120
Neighbor list builds = 0
Dangerous builds = 0
run 0
WARNING: No fixes defined, atoms won't move (../verlet.cpp:55)
Per MPI rank memory allocation (min/avg/max) = 3.418 | 3.418 | 3.418 Mbytes
Step Temp PotEng Press Pxy Xy Volume 
       0    504.90665   -3679.5276    1036.8041   -170.89791            0    9879.9698 
Loop time of 7.86e-07 on 1 procs for 0 steps with 864 atoms

127.2% CPU use with 1 MPI tasks x no OpenMP threads

MPI task timing breakdown:
Section |  min time  |  avg time  |  max time  |%varavg| %total
---------------------------------------------------------------
Pair    | 0          | 0          | 0          |   0.0 |  0.00
Neigh   | 0          | 0          | 0          |   0.0 |  0.00
Comm    | 0          | 0          | 0          |   0.0 |  0.00
Output  | 0          | 0          | 0          |   0.0 |  0.00
Modify  | 0          | 0          | 0          |   0.0 |  0.00
Other   |            | 7.86e-07   |            |       |100.00

Nlocal:        864.000 ave         864 max         864 min
Histogram: 1 0 0 0 0 0 0 0 0 0
Nghost:        3026.00 ave        3026 max        3026 min
Histogram: 1 0 0 0 0 0 0 0 0 0
Neighs:        56129.0 ave       56129 max       56129 min
Histogram: 1 0 0 0 0 0 0 0 0 0

Total # of neighbors = 56129
Ave neighs/atom = 64.964120
Neighbor list builds = 0
Dangerous builds = 0
run 0
WARNING: No fixes defined, atoms won't move (../verlet.cpp:55)
Per MPI rank memory allocation (min/avg/max) = 3.418 | 3.418 | 3.418 Mbytes
Step Temp PotEng Press Pxy Xy Volume 
       0    504.90665   -3679.6196    979.83524   -171.11122            0    9879.9698 
Loop time of 8.37e-07 on 1 procs for 0 steps with 864 atoms

238.9% CPU use with 1 MPI tasks x no OpenMP threads

MPI task timing breakdown:
Section |  min time  |  avg time  |  max time  |%varavg| %total
---------------------------------------------------------------
Pair    | 0          | 0          | 0          |   0.0 |  0.00
Neigh   | 0          | 0          | 0          |   0.0 |  0.00
Comm    | 0          | 0          | 0          |   0.0 |  0.00
Output  | 0          | 0          | 0          |   0.0 |  0.00
Modify  | 0          | 0          | 0          |   0.0 |  0.00
Other   |            | 8.37e-07   |            |       |100.00

Nlocal:        864.000 ave         864 max         864 min
Histogram: 1 0 0 0 0 0 0 0 0 0
Nghost:        3026.00 ave        3026 max        3026 min
Histogram: 1 0 0 0 0 0 0 0 0 0
Neighs:        56130.0 ave       56130 max       56130 min
Histogram: 1 0 0 0 0 0 0 0 0 0

Total # of neighbors = 56130
Ave neighs/atom = 64.965278
Neighbor list builds = 0
Dangerous builds = 0
run 0
WARNING: No fixes defined, atoms won't move (../verlet.cpp:55)
Per MPI rank memory allocation (min/avg/max) = 3.418 | 3.418 | 3.418 Mbytes
Step Temp PotEng Press Pxy Xy Volume 
       0    504.90665    -3679.803    866.26207   -171.54029            0    9879.9698 
Loop time of 8.46e-07 on 1 procs for 0 steps with 864 atoms

236.4% CPU use with 1 MPI tasks x no OpenMP threads

MPI task timing breakdown:
Section |  min time  |  avg time  |  max time  |%varavg| %total
---------------------------------------------------------------
Pair    | 0          | 0          | 0          |   0.0 |  0.00
Neigh   | 0          | 0          | 0          |   0.0 |  0.00
Comm    | 0          | 0          | 0          |   0.0 |  0.00
Output  | 0          | 0          | 0          |   0.0 |  0.00
Modify  | 0          | 0          | 0          |   0.0 |  0.00
Other   |            | 8.46e-07   |            |       |100.00

Nlocal:        864.000 ave         864 max         864 min
Histogram: 1 0 0 0 0 0 0 0 0 0
Nghost:        3026.00 ave        3026 max        3026 min
Histogram: 1 0 0 0 0 0 0 0 0 0
Neighs:        56135.0 ave       56135 max       56135 min
Histogram: 1 0 0 0 0 0 0 0 0 0

Total # of neighbors = 56135
Ave neighs/atom = 64.971065
Neighbor list builds = 0
Dangerous builds = 0
run 0
WARNING: No fixes defined, atoms won't move (../verlet.cpp:55)
Per MPI rank memory allocation (min/avg/max) = 3.418 | 3.418 | 3.418 Mbytes
Step Temp PotEng Press Pxy Xy Volume 
       0    504.90665   -3680.0768     696.7813   -172.19395            0    9879.9698 
Loop time of 7.77e-07 on 1 procs for 0 steps with 864 atoms

128.7% CPU use with 1 MPI tasks x no OpenMP threads

MPI task timing breakdown:
Section |  min time  |  avg time  |  max time  |%varavg| %total
---------------------------------------------------------------
Pair    | 0          | 0          | 0          |   0.0 |  0.00
Neigh   | 0          | 0          | 0          |   0.0 |  0.00
Comm    | 0          | 0          | 0          |   0.0 |  0.00
Output  | 0          | 0          | 0          |   0.0 |  0.00
Modify  | 0          | 0          | 0          |   0.0 |  0.00
Other   |            | 7.77e-07   |            |       |100.00

Nlocal:        864.000 ave         864 max         864 min
Histogram: 1 0 0 0 0 0 0 0 0 0
Nghost:        3026.00 ave        3026 max        3026 min
Histogram: 1 0 0 0 0 0 0 0 0 0
Neighs:        56140.0 ave       56140 max       56140 min
Histogram: 1 0 0 0 0 0 0 0 0 0

Total # of neighbors = 56140
Ave neighs/atom = 64.976852
Neighbor list builds = 0
Dangerous builds = 0
run 0
WARNING: No fixes defined, atoms won't move (../verlet.cpp:55)
Per MPI rank memory allocation (min/avg/max) = 3.418 | 3.418 | 3.418 Mbytes
Step Temp PotEng Press Pxy Xy Volume 
       0    504.90665   -3680.4395    472.51237   -173.07435            0    9879.9698 
Loop time of 8.5e-07 on 1 procs for 0 steps with 864 atoms

117.6% CPU use with 1 MPI tasks x no OpenMP threads

MPI task timing breakdown:
Section |  min time  |  avg time  |  max time  |%varavg| %total
---------------------------------------------------------------
Pair    | 0          | 0          | 0          |   0.0 |  0.00
Neigh   | 0          | 0          | 0          |   0.0 |  0.00
Comm    | 0          | 0          | 0          |   0.0 |  0.00
Output  | 0          | 0          | 0          |   0.0 |  0.00
Modify  | 0          | 0          | 0          |   0.0 |  0.00
Other   |            | 8.5e-07    |            |       |100.00

Nlocal:        864.000 ave         864 max         864 min
Histogram: 1 0 0 0 0 0 0 0 0 0
Nghost:        3026.00 ave        3026 max        3026 min
Histogram: 1 0 0 0 0 0 0 0 0 0
Neighs:        56146.0 ave       56146 max       56146 min
Histogram: 1 0 0 0 0 0 0 0 0 0

Total # of neighbors = 56146
Ave neighs/atom = 64.983796
Neighbor list builds = 0
Dangerous builds = 0
run 0
WARNING: No fixes defined, atoms won't move (../verlet.cpp:55)
Per MPI rank memory allocation (min/avg/max) = 3.418 | 3.418 | 3.418 Mbytes
Step Temp PotEng Press Pxy Xy Volume 
       0    504.90665   -3680.8889    194.83644   -174.20362            0    9879.9698 
Loop time of 8.64e-07 on 1 procs for 0 steps with 864 atoms

115.7% CPU use with 1 MPI tasks x no OpenMP threads

MPI task timing breakdown:
Section |  min time  |  avg time  |  max time  |%varavg| %total
---------------------------------------------------------------
Pair    | 0          | 0          | 0          |   0.0 |  0.00
Neigh   | 0          | 0          | 0          |   0.0 |  0.00
Comm    | 0          | 0          | 0          |   0.0 |  0.00
Output  | 0          | 0          | 0          |   0.0 |  0.00
Modify  | 0          | 0          | 0          |   0.0 |  0.00
Other   |            | 8.64e-07   |            |       |100.00

Nlocal:        864.000 ave         864 max         864 min
Histogram: 1 0 0 0 0 0 0 0 0 0
Nghost:        3026.00 ave        3026 max        3026 min
Histogram: 1 0 0 0 0 0 0 0 0 0
Neighs:        56153.0 ave       56153 max       56153 min
Histogram: 1 0 0 0 0 0 0 0 0 0

Total # of neighbors = 56153
Ave neighs/atom = 64.991898
Neighbor list builds = 0
Dangerous builds = 0
run 0
WARNING: No fixes defined, atoms won't move (../verlet.cpp:55)
Per MPI rank memory allocation (min/avg/max) = 3.418 | 3.418 | 3.418 Mbytes
Step Temp PotEng Press Pxy Xy Volume 
       0    504.90665   -3681.4804   -170.19964   -175.75433            0    9879.9698 
Loop time of 7.9e-07 on 1 procs for 0 steps with 864 atoms

253.2% CPU use with 1 MPI tasks x no OpenMP threads

MPI task timing breakdown:
Section |  min time  |  avg time  |  max time  |%varavg| %total
---------------------------------------------------------------
Pair    | 0          | 0          | 0          |   0.0 |  0.00
Neigh   | 0          | 0          | 0          |   0.0 |  0.00
Comm    | 0          | 0          | 0          |   0.0 |  0.00
Output  | 0          | 0          | 0          |   0.0 |  0.00
Modify  | 0          | 0          | 0          |   0.0 |  0.00
Other   |            | 7.9e-07    |            |       |100.00

Nlocal:        864.000 ave         864 max         864 min
Histogram: 1 0 0 0 0 0 0 0 0 0
Nghost:        3026.00 ave        3026 max        3026 min
Histogram: 1 0 0 0 0 0 0 0 0 0
Neighs:        56161.0 ave       56161 max       56161 min
Histogram: 1 0 0 0 0 0 0 0 0 0

Total # of neighbors = 56161
Ave neighs/atom = 65.001157
Neighbor list builds = 0
Dangerous builds = 0
run 0
WARNING: No fixes defined, atoms won't move (../verlet.cpp:55)
Per MPI rank memory allocation (min/avg/max) = 3.418 | 3.418 | 3.418 Mbytes
Step Temp PotEng Press Pxy Xy Volume 
       0    504.90665   -3682.2441   -640.66009   -177.85553            0    9879.9698 
Loop time of 8.33e-07 on 1 procs for 0 steps with 864 atoms

240.1% CPU use with 1 MPI tasks x no OpenMP threads

MPI task timing breakdown:
Section |  min time  |  avg time  |  max time  |%varavg| %total
---------------------------------------------------------------
Pair    | 0          | 0          | 0          |   0.0 |  0.00
Neigh   | 0          | 0          | 0          |   0.0 |  0.00
Comm    | 0          | 0          | 0          |   0.0 |  0.00
Output  | 0          | 0          | 0          |   0.0 |  0.00
Modify  | 0          | 0          | 0          |   0.0 |  0.00
Other   |            | 8.33e-07   |            |       |100.00

Nlocal:        864.000 ave         864 max         864 min
Histogram: 1 0 0 0 0 0 0 0 0 0
Nghost:        3026.00 ave        3026 max        3026 min
Histogram: 1 0 0 0 0 0 0 0 0 0
Neighs:        56186.0 ave       56186 max       56186 min
Histogram: 1 0 0 0 0 0 0 0 0 0

Total # of neighbors = 56186
Ave neighs/atom = 65.030093
Neighbor list builds = 0
Dangerous builds = 0
run 0
WARNING: No fixes defined, atoms won't move (../verlet.cpp:55)
Per MPI rank memory allocation (min/avg/max) = 3.418 | 3.418 | 3.418 Mbytes
Step Temp PotEng Press Pxy Xy Volume 
       0    504.90665   -3683.2137   -1236.5991   -180.67588            0    9879.9698 
Loop time of 8.76e-07 on 1 procs for 0 steps with 864 atoms

228.3% CPU use with 1 MPI tasks x no OpenMP threads

MPI task timing breakdown:
Section |  min time  |  avg time  |  max time  |%varavg| %total
---------------------------------------------------------------
Pair    | 0          | 0          | 0          |   0.0 |  0.00
Neigh   | 0          | 0          | 0          |   0.0 |  0.00
Comm    | 0          | 0          | 0          |   0.0 |  0.00
Output  | 0          | 0          | 0          |   0.0 |  0.00
Modify  | 0          | 0          | 0          |   0.0 |  0.00
Other   |            | 8.76e-07   |            |       |100.00

Nlocal:        864.000 ave         864 max         864 min
Histogram: 1 0 0 0 0 0 0 0 0 0
Nghost:        3022.00 ave        3022 max        3022 min
Histogram: 1 0 0 0 0 0 0 0 0 0
Neighs:        56215.0 ave       56215 max       56215 min
Histogram: 1 0 0 0 0 0 0 0 0 0

Total # of neighbors = 56215
Ave neighs/atom = 65.063657
Neighbor list builds = 0
Dangerous builds = 0
run 0
WARNING: No fixes defined, atoms won't move (../verlet.cpp:55)
Per MPI rank memory allocation (min/avg/max) = 3.418 | 3.418 | 3.418 Mbytes
Step Temp PotEng Press Pxy Xy Volume 
       0    504.90665   -3684.4263   -1979.5063   -184.49807            0    9879.9698 
Loop time of 8.7e-07 on 1 procs for 0 steps with 864 atoms

229.9% CPU use with 1 MPI tasks x no OpenMP threads

MPI task timing breakdown:
Section |  min time  |  avg time  |  max time  |%varavg| %total
---------------------------------------------------------------
Pair    | 0          | 0          | 0          |   0.0 |  0.00
Neigh   | 0          | 0          | 0          |   0.0 |  0.00
Comm    | 0          | 0          | 0          |   0.0 |  0.00
Output  | 0          | 0          | 0          |   0.0 |  0.00
Modify  | 0          | 0          | 0          |   0.0 |  0.00
Other   |            | 8.7e-07    |            |       |100.00

Nlocal:        864.000 ave         864 max         864 min
Histogram: 1 0 0 0 0 0 0 0 0 0
Nghost:        3022.00 ave        3022 max        3022 min
Histogram: 1 0 0 0 0 0 0 0 0 0
Neighs:        56242.0 ave       56242 max       56242 min
Histogram: 1 0 0 0 0 0 0 0 0 0

Total # of neighbors = 56242
Ave neighs/atom = 65.094907
Neighbor list builds = 0
Dangerous builds = 0
run 0
WARNING: No fixes defined, atoms won't move (../verlet.cpp:55)
Per MPI rank memory allocation (min/avg/max) = 3.418 | 3.418 | 3.418 Mbytes
Step Temp PotEng Press Pxy Xy Volume 
       0    504.90665   -3685.9207   -2891.2971   -189.54586            0    9879.9698 
Loop time of 8.61e-07 on 1 procs for 0 steps with 864 atoms

232.3% CPU use with 1 MPI tasks x no OpenMP threads

MPI task timing breakdown:
Section |  min time  |  avg time  |  max time  |%varavg| %total
---------------------------------------------------------------
Pair    | 0          | 0          | 0          |   0.0 |  0.00
Neigh   | 0          | 0          | 0          |   0.0 |  0.00
Comm    | 0          | 0          | 0          |   0.0 |  0.00
Output  | 0          | 0          | 0          |   0.0 |  0.00
Modify  | 0          | 0          | 0          |   0.0 |  0.00
Other   |            | 8.61e-07   |            |       |100.00

Nlocal:        864.000 ave         864 max         864 min
Histogram: 1 0 0 0 0 0 0 0 0 0
Nghost:        3023.00 ave        3023 max        3023 min
Histogram: 1 0 0 0 0 0 0 0 0 0
Neighs:        56280.0 ave       56280 max       56280 min
Histogram: 1 0 0 0 0 0 0 0 0 0

Total # of neighbors = 56280
Ave neighs/atom = 65.138889
Neighbor list builds = 0
Dangerous builds = 0
run 0
WARNING: No fixes defined, atoms won't move (../verlet.cpp:55)
Per MPI rank memory allocation (min/avg/max) = 3.418 | 3.418 | 3.418 Mbytes
Step Temp PotEng Press Pxy Xy Volume 
       0    504.90665   -3687.7359   -3992.6068   -196.24983            0    9879.9698 
Loop time of 8.32e-07 on 1 procs for 0 steps with 864 atoms

240.4% CPU use with 1 MPI tasks x no OpenMP threads

MPI task timing breakdown:
Section |  min time  |  avg time  |  max time  |%varavg| %total
---------------------------------------------------------------
Pair    | 0          | 0          | 0          |   0.0 |  0.00
Neigh   | 0          | 0          | 0          |   0.0 |  0.00
Comm    | 0          | 0          | 0          |   0.0 |  0.00
Output  | 0          | 0          | 0          |   0.0 |  0.00
Modify  | 0          | 0          | 0          |   0.0 |  0.00
Other   |            | 8.32e-07   |            |       |100.00

Nlocal:        864.000 ave         864 max         864 min
Histogram: 1 0 0 0 0 0 0 0 0 0
Nghost:        3023.00 ave        3023 max        3023 min
Histogram: 1 0 0 0 0 0 0 0 0 0
Neighs:        56326.0 ave       56326 max       56326 min
Histogram: 1 0 0 0 0 0 0 0 0 0

Total # of neighbors = 56326
Ave neighs/atom = 65.192130
Neighbor list builds = 0
Dangerous builds = 0
run 0
WARNING: No fixes defined, atoms won't move (../verlet.cpp:55)
Per MPI rank memory allocation (min/avg/max) = 3.418 | 3.418 | 3.418 Mbytes
Step Temp PotEng Press Pxy Xy Volume 
       0    504.90665   -3689.9071    -5300.144   -205.10356            0    9879.9698 
Loop time of 8.58e-07 on 1 procs for 0 steps with 864 atoms

233.1% CPU use with 1 MPI tasks x no OpenMP threads

MPI task timing breakdown:
Section |  min time  |  avg time  |  max time  |%varavg| %total
---------------------------------------------------------------
Pair    | 0          | 0          | 0          |   0.0 |  0.00
Neigh   | 0          | 0          | 0          |   0.0 |  0.00
Comm    | 0          | 0          | 0          |   0.0 |  0.00
Output  | 0          | 0          | 0          |   0.0 |  0.00
Modify  | 0          | 0          | 0          |   0.0 |  0.00
Other   |            | 8.58e-07   |            |       |100.00

Nlocal:        864.000 ave         864 max         864 min
Histogram: 1 0 0 0 0 0 0 0 0 0
Nghost:        3027.00 ave        3027 max        3027 min
Histogram: 1 0 0 0 0 0 0 0 0 0
Neighs:        56387.0 ave       56387 max       56387 min
Histogram: 1 0 0 0 0 0 0 0 0 0

Total # of neighbors = 56387
Ave neighs/atom = 65.262731
Neighbor list builds = 0
Dangerous builds = 0
run 0
WARNING: No fixes defined, atoms won't move (../verlet.cpp:55)
Per MPI rank memory allocation (min/avg/max) = 3.418 | 3.418 | 3.418 Mbytes
Step Temp PotEng Press Pxy Xy Volume 
       0    504.90665   -3692.4613   -6823.2624   -216.63884            0    9879.9698 
Loop time of 8.47e-07 on 1 procs for 0 steps with 864 atoms

118.1% CPU use with 1 MPI tasks x no OpenMP threads

MPI task timing breakdown:
Section |  min time  |  avg time  |  max time  |%varavg| %total
---------------------------------------------------------------
Pair    | 0          | 0          | 0          |   0.0 |  0.00
Neigh   | 0          | 0          | 0          |   0.0 |  0.00
Comm    | 0          | 0          | 0          |   0.0 |  0.00
Output  | 0          | 0          | 0          |   0.0 |  0.00
Modify  | 0          | 0          | 0          |   0.0 |  0.00
Other   |            | 8.47e-07   |            |       |100.00

Nlocal:        864.000 ave         864 max         864 min
Histogram: 1 0 0 0 0 0 0 0 0 0
Nghost:        3029.00 ave        3029 max        3029 min
Histogram: 1 0 0 0 0 0 0 0 0 0
Neighs:        56458.0 ave       56458 max       56458 min
Histogram: 1 0 0 0 0 0 0 0 0 0

Total # of neighbors = 56458
Ave neighs/atom = 65.344907
Neighbor list builds = 0
Dangerous builds = 0
run 0
WARNING: No fixes defined, atoms won't move (../verlet.cpp:55)
Per MPI rank memory allocation (min/avg/max) = 3.418 | 3.418 | 3.418 Mbytes
Step Temp PotEng Press Pxy Xy Volume 
       0    504.90665   -3695.4104   -8559.2416   -231.44464            0    9879.9698 
Loop time of 9.68e-07 on 1 procs for 0 steps with 864 atoms

103.3% CPU use with 1 MPI tasks x no OpenMP threads

MPI task timing breakdown:
Section |  min time  |  avg time  |  max time  |%varavg| %total
---------------------------------------------------------------
Pair    | 0          | 0          | 0          |   0.0 |  0.00
Neigh   | 0          | 0          | 0          |   0.0 |  0.00
Comm    | 0          | 0          | 0          |   0.0 |  0.00
Output  | 0          | 0          | 0          |   0.0 |  0.00
Modify  | 0          | 0          | 0          |   0.0 |  0.00
Other   |            | 9.68e-07   |            |       |100.00

Nlocal:        864.000 ave         864 max         864 min
Histogram: 1 0 0 0 0 0 0 0 0 0
Nghost:        3029.00 ave        3029 max        3029 min
Histogram: 1 0 0 0 0 0 0 0 0 0
Neighs:        56526.0 ave       56526 max       56526 min
Histogram: 1 0 0 0 0 0 0 0 0 0

Total # of neighbors = 56526
Ave neighs/atom = 65.423611
Neighbor list builds = 0
Dangerous builds = 0
run 0
WARNING: No fixes defined, atoms won't move (../verlet.cpp:55)
Per MPI rank memory allocation (min/avg/max) = 3.418 | 3.418 | 3.418 Mbytes
Step Temp PotEng Press Pxy Xy Volume 
       0    504.90665   -3698.7436    -10488.86   -250.02832            0    9879.9698 
Loop time of 8.22e-07 on 1 procs for 0 steps with 864 atoms

243.3% CPU use with 1 MPI tasks x no OpenMP threads

MPI task timing breakdown:
Section |  min time  |  avg time  |  max time  |%varavg| %total
---------------------------------------------------------------
Pair    | 0          | 0          | 0          |   0.0 |  0.00
Neigh   | 0          | 0          | 0          |   0.0 |  0.00
Comm    | 0          | 0          | 0          |   0.0 |  0.00
Output  | 0          | 0          | 0          |   0.0 |  0.00
Modify  | 0          | 0          | 0          |   0.0 |  0.00
Other   |            | 8.22e-07   |            |       |100.00

Nlocal:        864.000 ave         864 max         864 min
Histogram: 1 0 0 0 0 0 0 0 0 0
Nghost:        3035.00 ave        3035 max        3035 min
Histogram: 1 0 0 0 0 0 0 0 0 0
Neighs:        56627.0 ave       56627 max       56627 min
Histogram: 1 0 0 0 0 0 0 0 0 0

Total # of neighbors = 56627
Ave neighs/atom = 65.540509
Neighbor list builds = 0
Dangerous builds = 0
run 0
WARNING: No fixes defined, atoms won't move (../verlet.cpp:55)
Per MPI rank memory allocation (min/avg/max) = 3.418 | 3.418 | 3.418 Mbytes
Step Temp PotEng Press Pxy Xy Volume 
       0    504.90665   -3702.4176   -12571.803   -272.66118            0    9879.9698 
Loop time of 8.34e-07 on 1 procs for 0 steps with 864 atoms

119.9% CPU use with 1 MPI tasks x no OpenMP threads

MPI task timing breakdown:
Section |  min time  |  avg time  |  max time  |%varavg| %total
---------------------------------------------------------------
Pair    | 0          | 0          | 0          |   0.0 |  0.00
Neigh   | 0          | 0          | 0          |   0.0 |  0.00
Comm    | 0          | 0          | 0          |   0.0 |  0.00
Output  | 0          | 0          | 0          |   0.0 |  0.00
Modify  | 0          | 0          | 0          |   0.0 |  0.00
Other   |            | 8.34e-07   |            |       |100.00

Nlocal:        864.000 ave         864 max         864 min
Histogram: 1 0 0 0 0 0 0 0 0 0
Nghost:        3049.00 ave        3049 max        3049 min
Histogram: 1 0 0 0 0 0 0 0 0 0
Neighs:        56740.0 ave       56740 max       56740 min
Histogram: 1 0 0 0 0 0 0 0 0 0

Total # of neighbors = 56740
Ave neighs/atom = 65.671296
Neighbor list builds = 0
Dangerous builds = 0
run 0
WARNING: No fixes defined, atoms won't move (../verlet.cpp:55)
Per MPI rank memory allocation (min/avg/max) = 3.418 | 3.418 | 3.418 Mbytes
Step Temp PotEng Press Pxy Xy Volume 
       0    504.90665   -3706.3471   -14743.341   -299.06787            0    9879.9698 
Loop time of 8.87e-07 on 1 procs for 0 steps with 864 atoms

112.7% CPU use with 1 MPI tasks x no OpenMP threads

MPI task timing breakdown:
Section |  min time  |  avg time  |  max time  |%varavg| %total
---------------------------------------------------------------
Pair    | 0          | 0          | 0          |   0.0 |  0.00
Neigh   | 0          | 0          | 0          |   0.0 |  0.00
Comm    | 0          | 0          | 0          |   0.0 |  0.00
Output  | 0          | 0          | 0          |   0.0 |  0.00
Modify  | 0          | 0          | 0          |   0.0 |  0.00
Other   |            | 8.87e-07   |            |       |100.00

Nlocal:        864.000 ave         864 max         864 min
Histogram: 1 0 0 0 0 0 0 0 0 0
Nghost:        3053.00 ave        3053 max        3053 min
Histogram: 1 0 0 0 0 0 0 0 0 0
Neighs:        56875.0 ave       56875 max       56875 min
Histogram: 1 0 0 0 0 0 0 0 0 0

Total # of neighbors = 56875
Ave neighs/atom = 65.827546
Neighbor list builds = 0
Dangerous builds = 0
run 0
WARNING: No fixes defined, atoms won't move (../verlet.cpp:55)
Per MPI rank memory allocation (min/avg/max) = 3.418 | 3.418 | 3.418 Mbytes
Step Temp PotEng Press Pxy Xy Volume 
       0    504.90665   -3708.4151   -15859.633    -313.3989            0    9879.9698 
Loop time of 8.77e-07 on 1 procs for 0 steps with 864 atoms

228.1% CPU use with 1 MPI tasks x no OpenMP threads

MPI task timing breakdown:
Section |  min time  |  avg time  |  max time  |%varavg| %total
---------------------------------------------------------------
Pair    | 0          | 0          | 0          |   0.0 |  0.00
Neigh   | 0          | 0          | 0          |   0.0 |  0.00
Comm    | 0          | 0          | 0          |   0.0 |  0.00
Output  | 0          | 0          | 0          |   0.0 |  0.00
Modify  | 0          | 0          | 0          |   0.0 |  0.00
Other   |            | 8.77e-07   |            |       |100.00

Nlocal:        864.000 ave         864 max         864 min
Histogram: 1 0 0 0 0 0 0 0 0 0
Nghost:        3054.00 ave        3054 max        3054 min
Histogram: 1 0 0 0 0 0 0 0 0 0
Neighs:        56941.0 ave       56941 max       56941 min
Histogram: 1 0 0 0 0 0 0 0 0 0

Total # of neighbors = 56941
Ave neighs/atom = 65.903935
Neighbor list builds = 0
Dangerous builds = 0
run 0
WARNING: No fixes defined, atoms won't move (../verlet.cpp:55)
Per MPI rank memory allocation (min/avg/max) = 3.418 | 3.418 | 3.418 Mbytes
Step Temp PotEng Press Pxy Xy Volume 
       0    504.90665   -3710.5934   -17013.531   -328.34892            0    9879.9698 
Loop time of 8.64e-07 on 1 procs for 0 steps with 864 atoms

115.7% CPU use with 1 MPI tasks x no OpenMP threads

MPI task timing breakdown:
Section |  min time  |  avg time  |  max time  |%varavg| %total
---------------------------------------------------------------
Pair    | 0          | 0          | 0          |   0.0 |  0.00
Neigh   | 0          | 0          | 0          |   0.0 |  0.00
Comm    | 0          | 0          | 0          |   0.0 |  0.00
Output  | 0          | 0          | 0          |   0.0 |  0.00
Modify  | 0          | 0          | 0          |   0.0 |  0.00
Other   |            | 8.64e-07   |            |       |100.00

Nlocal:        864.000 ave         864 max         864 min
Histogram: 1 0 0 0 0 0 0 0 0 0
Nghost:        3057.00 ave        3057 max        3057 min
Histogram: 1 0 0 0 0 0 0 0 0 0
Neighs:        57015.0 ave       57015 max       57015 min
Histogram: 1 0 0 0 0 0 0 0 0 0

Total # of neighbors = 57015
Ave neighs/atom = 65.989583
Neighbor list builds = 0
Dangerous builds = 0
run 0
WARNING: No fixes defined, atoms won't move (../verlet.cpp:55)
Per MPI rank memory allocation (min/avg/max) = 3.418 | 3.418 | 3.418 Mbytes
Step Temp PotEng Press Pxy Xy Volume 
       0    504.90665   -3712.8533    -18186.08   -343.16002            0    9879.9698 
Loop time of 8.4e-07 on 1 procs for 0 steps with 864 atoms

238.1% CPU use with 1 MPI tasks x no OpenMP threads

MPI task timing breakdown:
Section |  min time  |  avg time  |  max time  |%varavg| %total
---------------------------------------------------------------
Pair    | 0          | 0          | 0          |   0.0 |  0.00
Neigh   | 0          | 0          | 0          |   0.0 |  0.00
Comm    | 0          | 0          | 0          |   0.0 |  0.00
Output  | 0          | 0          | 0          |   0.0 |  0.00
Modify  | 0          | 0          | 0          |   0.0 |  0.00
Other   |            | 8.4e-07    |            |       |100.00

Nlocal:        864.000 ave         864 max         864 min
Histogram: 1 0 0 0 0 0 0 0 0 0
Nghost:        3061.00 ave        3061 max        3061 min
Histogram: 1 0 0 0 0 0 0 0 0 0
Neighs:        57091.0 ave       57091 max       57091 min
Histogram: 1 0 0 0 0 0 0 0 0 0

Total # of neighbors = 57091
Ave neighs/atom = 66.077546
Neighbor list builds = 0
Dangerous builds = 0
run 0
WARNING: No fixes defined, atoms won't move (../verlet.cpp:55)
Per MPI rank memory allocation (min/avg/max) = 3.418 | 3.418 | 3.418 Mbytes
Step Temp PotEng Press Pxy Xy Volume 
       0    504.90665    -3715.154   -19353.484   -356.74589            0    9879.9698 
Loop time of 8.96e-07 on 1 procs for 0 steps with 864 atoms

111.6% CPU use with 1 MPI tasks x no OpenMP threads

MPI task timing breakdown:
Section |  min time  |  avg time  |  max time  |%varavg| %total
---------------------------------------------------------------
Pair    | 0          | 0          | 0          |   0.0 |  0.00
Neigh   | 0          | 0          | 0          |   0.0 |  0.00
Comm    | 0          | 0          | 0          |   0.0 |  0.00
Output  | 0          | 0          | 0          |   0.0 |  0.00
Modify  | 0          | 0          | 0          |   0.0 |  0.00
Other   |            | 8.96e-07   |            |       |100.00

Nlocal:        864.000 ave         864 max         864 min
Histogram: 1 0 0 0 0 0 0 0 0 0
Nghost:        3059.00 ave        3059 max        3059 min
Histogram: 1 0 0 0 0 0 0 0 0 0
Neighs:        57168.0 ave       57168 max       57168 min
Histogram: 1 0 0 0 0 0 0 0 0 0

Total # of neighbors = 57168
Ave neighs/atom = 66.166667
Neighbor list builds = 0
Dangerous builds = 0
run 0
WARNING: No fixes defined, atoms won't move (../verlet.cpp:55)
Per MPI rank memory allocation (min/avg/max) = 3.418 | 3.418 | 3.418 Mbytes
Step Temp PotEng Press Pxy Xy Volume 
       0    504.90665    -3717.442   -20488.171   -367.56733            0    9879.9698 
Loop time of 8.96e-07 on 1 procs for 0 steps with 864 atoms

223.2% CPU use with 1 MPI tasks x no OpenMP threads

MPI task timing breakdown:
Section |  min time  |  avg time  |  max time  |%varavg| %total
---------------------------------------------------------------
Pair    | 0          | 0          | 0          |   0.0 |  0.00
Neigh   | 0          | 0          | 0          |   0.0 |  0.00
Comm    | 0          | 0          | 0          |   0.0 |  0.00
Output  | 0          | 0          | 0          |   0.0 |  0.00
Modify  | 0          | 0          | 0          |   0.0 |  0.00
Other   |            | 8.96e-07   |            |       |100.00

Nlocal:        864.000 ave         864 max         864 min
Histogram: 1 0 0 0 0 0 0 0 0 0
Nghost:        3060.00 ave        3060 max        3060 min
Histogram: 1 0 0 0 0 0 0 0 0 0
Neighs:        57247.0 ave       57247 max       57247 min
Histogram: 1 0 0 0 0 0 0 0 0 0

Total # of neighbors = 57247
Ave neighs/atom = 66.258102
Neighbor list builds = 0
Dangerous builds = 0
run 0
WARNING: No fixes defined, atoms won't move (../verlet.cpp:55)
Per MPI rank memory allocation (min/avg/max) = 3.418 | 3.418 | 3.418 Mbytes
Step Temp PotEng Press Pxy Xy Volume 
       0    504.90665   -3719.6518   -21560.072   -374.00914            0    9879.9698 
Loop time of 9.29e-07 on 1 procs for 0 steps with 864 atoms

107.6% CPU use with 1 MPI tasks x no OpenMP threads

MPI task timing breakdown:
Section |  min time  |  avg time  |  max time  |%varavg| %total
---------------------------------------------------------------
Pair    | 0          | 0          | 0          |   0.0 |  0.00
Neigh   | 0          | 0          | 0          |   0.0 |  0.00
Comm    | 0          | 0          | 0          |   0.0 |  0.00
Output  | 0          | 0          | 0          |   0.0 |  0.00
Modify  | 0          | 0          | 0          |   0.0 |  0.00
Other   |            | 9.29e-07   |            |       |100.00

Nlocal:        864.000 ave         864 max         864 min
Histogram: 1 0 0 0 0 0 0 0 0 0
Nghost:        3068.00 ave        3068 max        3068 min
Histogram: 1 0 0 0 0 0 0 0 0 0
Neighs:        57359.0 ave       57359 max       57359 min
Histogram: 1 0 0 0 0 0 0 0 0 0

Total # of neighbors = 57359
Ave neighs/atom = 66.387731
Neighbor list builds = 0
Dangerous builds = 0
run 0
WARNING: No fixes defined, atoms won't move (../verlet.cpp:55)
Per MPI rank memory allocation (min/avg/max) = 3.418 | 3.418 | 3.418 Mbytes
Step Temp PotEng Press Pxy Xy Volume 
       0    504.90665    -3720.734    -22077.37   -375.04772            0    9879.9698 
Loop time of 9.43e-07 on 1 procs for 0 steps with 864 atoms

212.1% CPU use with 1 MPI tasks x no OpenMP threads

MPI task timing breakdown:
Section |  min time  |  avg time  |  max time  |%varavg| %total
---------------------------------------------------------------
Pair    | 0          | 0          | 0          |   0.0 |  0.00
Neigh   | 0          | 0          | 0          |   0.0 |  0.00
Comm    | 0          | 0          | 0          |   0.0 |  0.00
Output  | 0          | 0          | 0          |   0.0 |  0.00
Modify  | 0          | 0          | 0          |   0.0 |  0.00
Other   |            | 9.43e-07   |            |       |100.00

Nlocal:        864.000 ave         864 max         864 min
Histogram: 1 0 0 0 0 0 0 0 0 0
Nghost:        3072.00 ave        3072 max        3072 min
Histogram: 1 0 0 0 0 0 0 0 0 0
Neighs:        57414.0 ave       57414 max       57414 min
Histogram: 1 0 0 0 0 0 0 0 0 0

Total # of neighbors = 57414
Ave neighs/atom = 66.451389
Neighbor list builds = 0
Dangerous builds = 0
run 0
WARNING: No fixes defined, atoms won't move (../verlet.cpp:55)
Per MPI rank memory allocation (min/avg/max) = 3.418 | 3.418 | 3.418 Mbytes
Step Temp PotEng Press Pxy Xy Volume 
       0    504.90665   -3721.8277   -22596.524   -374.09246            0    9879.9698 
Loop time of 8.35e-07 on 1 procs for 0 steps with 864 atoms

119.8% CPU use with 1 MPI tasks x no OpenMP threads

MPI task timing breakdown:
Section |  min time  |  avg time  |  max time  |%varavg| %total
---------------------------------------------------------------
Pair    | 0          | 0          | 0          |   0.0 |  0.00
Neigh   | 0          | 0          | 0          |   0.0 |  0.00
Comm    | 0          | 0          | 0          |   0.0 |  0.00
Output  | 0          | 0          | 0          |   0.0 |  0.00
Modify  | 0          | 0          | 0          |   0.0 |  0.00
Other   |            | 8.35e-07   |            |       |100.00

Nlocal:        864.000 ave         864 max         864 min
Histogram: 1 0 0 0 0 0 0 0 0 0
Nghost:        3072.00 ave        3072 max        3072 min
Histogram: 1 0 0 0 0 0 0 0 0 0
Neighs:        57476.0 ave       57476 max       57476 min
Histogram: 1 0 0 0 0 0 0 0 0 0

Total # of neighbors = 57476
Ave neighs/atom = 66.523148
Neighbor list builds = 0
Dangerous builds = 0
run 0
WARNING: No fixes defined, atoms won't move (../verlet.cpp:55)
Per MPI rank memory allocation (min/avg/max) = 3.418 | 3.418 | 3.418 Mbytes
Step Temp PotEng Press Pxy Xy Volume 
       0    504.90665   -3722.9209   -23113.633   -370.69777            0    9879.9698 
Loop time of 8.96e-07 on 1 procs for 0 steps with 864 atoms

223.2% CPU use with 1 MPI tasks x no OpenMP threads

MPI task timing breakdown:
Section |  min time  |  avg time  |  max time  |%varavg| %total
---------------------------------------------------------------
Pair    | 0          | 0          | 0          |   0.0 |  0.00
Neigh   | 0          | 0          | 0          |   0.0 |  0.00
Comm    | 0          | 0          | 0          |   0.0 |  0.00
Output  | 0          | 0          | 0          |   0.0 |  0.00
Modify  | 0          | 0          | 0          |   0.0 |  0.00
Other   |            | 8.96e-07   |            |       |100.00

Nlocal:        864.000 ave         864 max         864 min
Histogram: 1 0 0 0 0 0 0 0 0 0
Nghost:        3076.00 ave        3076 max        3076 min
Histogram: 1 0 0 0 0 0 0 0 0 0
Neighs:        57525.0 ave       57525 max       57525 min
Histogram: 1 0 0 0 0 0 0 0 0 0

Total # of neighbors = 57525
Ave neighs/atom = 66.579861
Neighbor list builds = 0
Dangerous builds = 0
run 0
WARNING: No fixes defined, atoms won't move (../verlet.cpp:55)
Per MPI rank memory allocation (min/avg/max) = 3.418 | 3.418 | 3.418 Mbytes
Step Temp PotEng Press Pxy Xy Volume 
       0    504.90665        -3724   -23624.825   -364.47944            0    9879.9698 
Loop time of 7.9e-07 on 1 procs for 0 steps with 864 atoms

253.2% CPU use with 1 MPI tasks x no OpenMP threads

MPI task timing breakdown:
Section |  min time  |  avg time  |  max time  |%varavg| %total
---------------------------------------------------------------
Pair    | 0          | 0          | 0          |   0.0 |  0.00
Neigh   | 0          | 0          | 0          |   0.0 |  0.00
Comm    | 0          | 0          | 0          |   0.0 |  0.00
Output  | 0          | 0          | 0          |   0.0 |  0.00
Modify  | 0          | 0          | 0          |   0.0 |  0.00
Other   |            | 7.9e-07    |            |       |100.00

Nlocal:        864.000 ave         864 max         864 min
Histogram: 1 0 0 0 0 0 0 0 0 0
Nghost:        3080.00 ave        3080 max        3080 min
Histogram: 1 0 0 0 0 0 0 0 0 0
Neighs:        57579.0 ave       57579 max       57579 min
Histogram: 1 0 0 0 0 0 0 0 0 0

Total # of neighbors = 57579
Ave neighs/atom = 66.642361
Neighbor list builds = 0
Dangerous builds = 0
run 0
WARNING: No fixes defined, atoms won't move (../verlet.cpp:55)
Per MPI rank memory allocation (min/avg/max) = 3.418 | 3.418 | 3.418 Mbytes
Step Temp PotEng Press Pxy Xy Volume 
       0    504.90665   -3725.0503   -24125.631   -355.07281            0    9879.9698 
Loop time of 8.34e-07 on 1 procs for 0 steps with 864 atoms

239.8% CPU use with 1 MPI tasks x no OpenMP threads

MPI task timing breakdown:
Section |  min time  |  avg time  |  max time  |%varavg| %total
---------------------------------------------------------------
Pair    | 0          | 0          | 0          |   0.0 |  0.00
Neigh   | 0          | 0          | 0          |   0.0 |  0.00
Comm    | 0          | 0          | 0          |   0.0 |  0.00
Output  | 0          | 0          | 0          |   0.0 |  0.00
Modify  | 0          | 0          | 0          |   0.0 |  0.00
Other   |            | 8.34e-07   |            |       |100.00

Nlocal:        864.000 ave         864 max         864 min
Histogram: 1 0 0 0 0 0 0 0 0 0
Nghost:        3085.00 ave        3085 max        3085 min
Histogram: 1 0 0 0 0 0 0 0 0 0
Neighs:        57626.0 ave       57626 max       57626 min
Histogram: 1 0 0 0 0 0 0 0 0 0

Total # of neighbors = 57626
Ave neighs/atom = 66.696759
Neighbor list builds = 0
Dangerous builds = 0
run 0
WARNING: No fixes defined, atoms won't move (../verlet.cpp:55)
Per MPI rank memory allocation (min/avg/max) = 3.418 | 3.418 | 3.418 Mbytes
Step Temp PotEng Press Pxy Xy Volume 
       0    504.90665   -3726.0553   -24610.832   -342.41669            0    9879.9698 
Loop time of 8.49e-07 on 1 procs for 0 steps with 864 atoms

235.6% CPU use with 1 MPI tasks x no OpenMP threads

MPI task timing breakdown:
Section |  min time  |  avg time  |  max time  |%varavg| %total
---------------------------------------------------------------
Pair    | 0          | 0          | 0          |   0.0 |  0.00
Neigh   | 0          | 0          | 0          |   0.0 |  0.00
Comm    | 0          | 0          | 0          |   0.0 |  0.00
Output  | 0          | 0          | 0          |   0.0 |  0.00
Modify  | 0          | 0          | 0          |   0.0 |  0.00
Other   |            | 8.49e-07   |            |       |100.00

Nlocal:        864.000 ave         864 max         864 min
Histogram: 1 0 0 0 0 0 0 0 0 0
Nghost:        3089.00 ave        3089 max        3089 min
Histogram: 1 0 0 0 0 0 0 0 0 0
Neighs:        57677.0 ave       57677 max       57677 min
Histogram: 1 0 0 0 0 0 0 0 0 0

Total # of neighbors = 57677
Ave neighs/atom = 66.755787
Neighbor list builds = 0
Dangerous builds = 0
run 0
WARNING: No fixes defined, atoms won't move (../verlet.cpp:55)
Per MPI rank memory allocation (min/avg/max) = 3.418 | 3.418 | 3.418 Mbytes
Step Temp PotEng Press Pxy Xy Volume 
       0    504.90665   -3726.9974   -25074.018   -326.51587            0    9879.9698 
Loop time of 8.1e-07 on 1 procs for 0 steps with 864 atoms

246.9% CPU use with 1 MPI tasks x no OpenMP threads

MPI task timing breakdown:
Section |  min time  |  avg time  |  max time  |%varavg| %total
---------------------------------------------------------------
Pair    | 0          | 0          | 0          |   0.0 |  0.00
Neigh   | 0          | 0          | 0          |   0.0 |  0.00
Comm    | 0          | 0          | 0          |   0.0 |  0.00
Output  | 0          | 0          | 0          |   0.0 |  0.00
Modify  | 0          | 0          | 0          |   0.0 |  0.00
Other   |            | 8.1e-07    |            |       |100.00

Nlocal:        864.000 ave         864 max         864 min
Histogram: 1 0 0 0 0 0 0 0 0 0
Nghost:        3097.00 ave        3097 max        3097 min
Histogram: 1 0 0 0 0 0 0 0 0 0
Neighs:        57718.0 ave       57718 max       57718 min
Histogram: 1 0 0 0 0 0 0 0 0 0

Total # of neighbors = 57718
Ave neighs/atom = 66.803241
Neighbor list builds = 0
Dangerous builds = 0
run 0
WARNING: No fixes defined, atoms won't move (../verlet.cpp:55)
Per MPI rank memory allocation (min/avg/max) = 3.418 | 3.418 | 3.418 Mbytes
Step Temp PotEng Press Pxy Xy Volume 
       0    504.90665   -3727.8566   -25505.873   -307.37819            0    9879.9698 
Loop time of 1.889e-06 on 1 procs for 0 steps with 864 atoms

158.8% CPU use with 1 MPI tasks x no OpenMP threads

MPI task timing breakdown:
Section |  min time  |  avg time  |  max time  |%varavg| %total
---------------------------------------------------------------
Pair    | 0          | 0          | 0          |   0.0 |  0.00
Neigh   | 0          | 0          | 0          |   0.0 |  0.00
Comm    | 0          | 0          | 0          |   0.0 |  0.00
Output  | 0          | 0          | 0          |   0.0 |  0.00
Modify  | 0          | 0          | 0          |   0.0 |  0.00
Other   |            | 1.889e-06  |            |       |100.00

Nlocal:        864.000 ave         864 max         864 min
Histogram: 1 0 0 0 0 0 0 0 0 0
Nghost:        3101.00 ave        3101 max        3101 min
Histogram: 1 0 0 0 0 0 0 0 0 0
Neighs:        57773.0 ave       57773 max       57773 min
Histogram: 1 0 0 0 0 0 0 0 0 0

Total # of neighbors = 57773
Ave neighs/atom = 66.866898
Neighbor list builds = 0
Dangerous builds = 0
run 0
WARNING: No fixes defined, atoms won't move (../verlet.cpp:55)
Per MPI rank memory allocation (min/avg/max) = 3.418 | 3.418 | 3.418 Mbytes
Step Temp PotEng Press Pxy Xy Volume 
       0    504.90665   -3728.2663   -25715.288   -296.64477            0    9879.9698 
Loop time of 8.04e-07 on 1 procs for 0 steps with 864 atoms

124.4% CPU use with 1 MPI tasks x no OpenMP threads

MPI task timing breakdown:
Section |  min time  |  avg time  |  max time  |%varavg| %total
---------------------------------------------------------------
Pair    | 0          | 0          | 0          |   0.0 |  0.00
Neigh   | 0          | 0          | 0          |   0.0 |  0.00
Comm    | 0          | 0          | 0          |   0.0 |  0.00
Output  | 0          | 0          | 0          |   0.0 |  0.00
Modify  | 0          | 0          | 0          |   0.0 |  0.00
Other   |            | 8.04e-07   |            |       |100.00

Nlocal:        864.000 ave         864 max         864 min
Histogram: 1 0 0 0 0 0 0 0 0 0
Nghost:        3105.00 ave        3105 max        3105 min
Histogram: 1 0 0 0 0 0 0 0 0 0
Neighs:        57786.0 ave       57786 max       57786 min
Histogram: 1 0 0 0 0 0 0 0 0 0

Total # of neighbors = 57786
Ave neighs/atom = 66.881944
Neighbor list builds = 0
Dangerous builds = 0
run 0
WARNING: No fixes defined, atoms won't move (../verlet.cpp:55)
Per MPI rank memory allocation (min/avg/max) = 3.418 | 3.418 | 3.418 Mbytes
Step Temp PotEng Press Pxy Xy Volume 
       0    504.90665   -3728.6824   -25929.427   -285.18255            0    9879.9698 
Loop time of 8.01e-07 on 1 procs for 0 steps with 864 atoms

249.7% CPU use with 1 MPI tasks x no OpenMP threads

MPI task timing breakdown:
Section |  min time  |  avg time  |  max time  |%varavg| %total
---------------------------------------------------------------
Pair    | 0          | 0          | 0          |   0.0 |  0.00
Neigh   | 0          | 0          | 0          |   0.0 |  0.00
Comm    | 0          | 0          | 0          |   0.0 |  0.00
Output  | 0          | 0          | 0          |   0.0 |  0.00
Modify  | 0          | 0          | 0          |   0.0 |  0.00
Other   |            | 8.01e-07   |            |       |100.00

Nlocal:        864.000 ave         864 max         864 min
Histogram: 1 0 0 0 0 0 0 0 0 0
Nghost:        3109.00 ave        3109 max        3109 min
Histogram: 1 0 0 0 0 0 0 0 0 0
Neighs:        57805.0 ave       57805 max       57805 min
Histogram: 1 0 0 0 0 0 0 0 0 0

Total # of neighbors = 57805
Ave neighs/atom = 66.903935
Neighbor list builds = 0
Dangerous builds = 0
run 0
WARNING: No fixes defined, atoms won't move (../verlet.cpp:55)
Per MPI rank memory allocation (min/avg/max) = 3.418 | 3.418 | 3.418 Mbytes
Step Temp PotEng Press Pxy Xy Volume 
       0    504.90665    -3729.099   -26144.064   -273.14186            0    9879.9698 
Loop time of 9.12e-07 on 1 procs for 0 steps with 864 atoms

219.3% CPU use with 1 MPI tasks x no OpenMP threads

MPI task timing breakdown:
Section |  min time  |  avg time  |  max time  |%varavg| %total
---------------------------------------------------------------
Pair    | 0          | 0          | 0          |   0.0 |  0.00
Neigh   | 0          | 0          | 0          |   0.0 |  0.00
Comm    | 0          | 0          | 0          |   0.0 |  0.00
Output  | 0          | 0          | 0          |   0.0 |  0.00
Modify  | 0          | 0          | 0          |   0.0 |  0.00
Other   |            | 9.12e-07   |            |       |100.00

Nlocal:        864.000 ave         864 max         864 min
Histogram: 1 0 0 0 0 0 0 0 0 0
Nghost:        3109.00 ave        3109 max        3109 min
Histogram: 1 0 0 0 0 0 0 0 0 0
Neighs:        57818.0 ave       57818 max       57818 min
Histogram: 1 0 0 0 0 0 0 0 0 0

Total # of neighbors = 57818
Ave neighs/atom = 66.918981
Neighbor list builds = 0
Dangerous builds = 0
run 0
WARNING: No fixes defined, atoms won't move (../verlet.cpp:55)
Per MPI rank memory allocation (min/avg/max) = 3.418 | 3.418 | 3.418 Mbytes
Step Temp PotEng Press Pxy Xy Volume 
       0    504.90665    -3729.507   -26353.234   -260.79086            0    9879.9698 
Loop time of 8.11e-07 on 1 procs for 0 steps with 864 atoms

246.6% CPU use with 1 MPI tasks x no OpenMP threads

MPI task timing breakdown:
Section |  min time  |  avg time  |  max time  |%varavg| %total
---------------------------------------------------------------
Pair    | 0          | 0          | 0          |   0.0 |  0.00
Neigh   | 0          | 0          | 0          |   0.0 |  0.00
Comm    | 0          | 0          | 0          |   0.0 |  0.00
Output  | 0          | 0          | 0          |   0.0 |  0.00
Modify  | 0          | 0          | 0          |   0.0 |  0.00
Other   |            | 8.11e-07   |            |       |100.00

Nlocal:        864.000 ave         864 max         864 min
Histogram: 1 0 0 0 0 0 0 0 0 0
Nghost:        3109.00 ave        3109 max        3109 min
Histogram: 1 0 0 0 0 0 0 0 0 0
Neighs:        57829.0 ave       57829 max       57829 min
Histogram: 1 0 0 0 0 0 0 0 0 0

Total # of neighbors = 57829
Ave neighs/atom = 66.931713
Neighbor list builds = 0
Dangerous builds = 0
run 0
WARNING: No fixes defined, atoms won't move (../verlet.cpp:55)
Per MPI rank memory allocation (min/avg/max) = 3.418 | 3.418 | 3.418 Mbytes
Step Temp PotEng Press Pxy Xy Volume 
       0    504.90665   -3729.8942   -26549.283   -248.41671            0    9879.9698 
Loop time of 7.89e-07 on 1 procs for 0 steps with 864 atoms

253.5% CPU use with 1 MPI tasks x no OpenMP threads

MPI task timing breakdown:
Section |  min time  |  avg time  |  max time  |%varavg| %total
---------------------------------------------------------------
Pair    | 0          | 0          | 0          |   0.0 |  0.00
Neigh   | 0          | 0          | 0          |   0.0 |  0.00
Comm    | 0          | 0          | 0          |   0.0 |  0.00
Output  | 0          | 0          | 0          |   0.0 |  0.00
Modify  | 0          | 0          | 0          |   0.0 |  0.00
Other   |            | 7.89e-07   |            |       |100.00

Nlocal:        864.000 ave         864 max         864 min
Histogram: 1 0 0 0 0 0 0 0 0 0
Nghost:        3111.00 ave        3111 max        3111 min
Histogram: 1 0 0 0 0 0 0 0 0 0
Neighs:        57837.0 ave       57837 max       57837 min
Histogram: 1 0 0 0 0 0 0 0 0 0

Total # of neighbors = 57837
Ave neighs/atom = 66.940972
Neighbor list builds = 0
Dangerous builds = 0
run 0
WARNING: No fixes defined, atoms won't move (../verlet.cpp:55)
Per MPI rank memory allocation (min/avg/max) = 3.418 | 3.418 | 3.418 Mbytes
Step Temp PotEng Press Pxy Xy Volume 
       0    504.90665   -3730.2454   -26722.919   -236.44169            0    9879.9698 
Loop time of 8.45e-07 on 1 procs for 0 steps with 864 atoms

236.7% CPU use with 1 MPI tasks x no OpenMP threads

MPI task timing breakdown:
Section |  min time  |  avg time  |  max time  |%varavg| %total
---------------------------------------------------------------
Pair    | 0          | 0          | 0          |   0.0 |  0.00
Neigh   | 0          | 0          | 0          |   0.0 |  0.00
Comm    | 0          | 0          | 0          |   0.0 |  0.00
Output  | 0          | 0          | 0          |   0.0 |  0.00
Modify  | 0          | 0          | 0          |   0.0 |  0.00
Other   |            | 8.45e-07   |            |       |100.00

Nlocal:        864.000 ave         864 max         864 min
Histogram: 1 0 0 0 0 0 0 0 0 0
Nghost:        3117.00 ave        3117 max        3117 min
Histogram: 1 0 0 0 0 0 0 0 0 0
Neighs:        57851.0 ave       57851 max       57851 min
Histogram: 1 0 0 0 0 0 0 0 0 0

Total # of neighbors = 57851
Ave neighs/atom = 66.957176
Neighbor list builds = 0
Dangerous builds = 0
run 0
WARNING: No fixes defined, atoms won't move (../verlet.cpp:55)
Per MPI rank memory allocation (min/avg/max) = 3.418 | 3.418 | 3.418 Mbytes
Step Temp PotEng Press Pxy Xy Volume 
       0    504.90665   -3730.5437   -26863.952   -225.36915            0    9879.9698 
Loop time of 7.88e-07 on 1 procs for 0 steps with 864 atoms

253.8% CPU use with 1 MPI tasks x no OpenMP threads

MPI task timing breakdown:
Section |  min time  |  avg time  |  max time  |%varavg| %total
---------------------------------------------------------------
Pair    | 0          | 0          | 0          |   0.0 |  0.00
Neigh   | 0          | 0          | 0          |   0.0 |  0.00
Comm    | 0          | 0          | 0          |   0.0 |  0.00
Output  | 0          | 0          | 0          |   0.0 |  0.00
Modify  | 0          | 0          | 0          |   0.0 |  0.00
Other   |            | 7.88e-07   |            |       |100.00

Nlocal:        864.000 ave         864 max         864 min
Histogram: 1 0 0 0 0 0 0 0 0 0
Nghost:        3120.00 ave        3120 max        3120 min
Histogram: 1 0 0 0 0 0 0 0 0 0
Neighs:        57857.0 ave       57857 max       57857 min
Histogram: 1 0 0 0 0 0 0 0 0 0

Total # of neighbors = 57857
Ave neighs/atom = 66.964120
Neighbor list builds = 0
Dangerous builds = 0
run 0
WARNING: No fixes defined, atoms won't move (../verlet.cpp:55)
Per MPI rank memory allocation (min/avg/max) = 3.418 | 3.418 | 3.418 Mbytes
Step Temp PotEng Press Pxy Xy Volume 
       0    504.90665   -3730.7722   -26962.508   -215.82253            0    9879.9698 
Loop time of 8.89e-07 on 1 procs for 0 steps with 864 atoms

225.0% CPU use with 1 MPI tasks x no OpenMP threads

MPI task timing breakdown:
Section |  min time  |  avg time  |  max time  |%varavg| %total
---------------------------------------------------------------
Pair    | 0          | 0          | 0          |   0.0 |  0.00
Neigh   | 0          | 0          | 0          |   0.0 |  0.00
Comm    | 0          | 0          | 0          |   0.0 |  0.00
Output  | 0          | 0          | 0          |   0.0 |  0.00
Modify  | 0          | 0          | 0          |   0.0 |  0.00
Other   |            | 8.89e-07   |            |       |100.00

Nlocal:        864.000 ave         864 max         864 min
Histogram: 1 0 0 0 0 0 0 0 0 0
Nghost:        3121.00 ave        3121 max        3121 min
Histogram: 1 0 0 0 0 0 0 0 0 0
Neighs:        57861.0 ave       57861 max       57861 min
Histogram: 1 0 0 0 0 0 0 0 0 0

Total # of neighbors = 57861
Ave neighs/atom = 66.968750
Neighbor list builds = 0
Dangerous builds = 0
run 0
WARNING: No fixes defined, atoms won't move (../verlet.cpp:55)
Per MPI rank memory allocation (min/avg/max) = 3.418 | 3.418 | 3.418 Mbytes
Step Temp PotEng Press Pxy Xy Volume 
       0    504.90665   -3730.9179   -27010.851   -208.60245            0    9879.9698 
Loop time of 8.7e-07 on 1 procs for 0 steps with 864 atoms

229.9% CPU use with 1 MPI tasks x no OpenMP threads

MPI task timing breakdown:
Section |  min time  |  avg time  |  max time  |%varavg| %total
---------------------------------------------------------------
Pair    | 0          | 0          | 0          |   0.0 |  0.00
Neigh   | 0          | 0          | 0          |   0.0 |  0.00
Comm    | 0          | 0          | 0          |   0.0 |  0.00
Output  | 0          | 0          | 0          |   0.0 |  0.00
Modify  | 0          | 0          | 0          |   0.0 |  0.00
Other   |            | 8.7e-07    |            |       |100.00

Nlocal:        864.000 ave         864 max         864 min
Histogram: 1 0 0 0 0 0 0 0 0 0
Nghost:        3123.00 ave        3123 max        3123 min
Histogram: 1 0 0 0 0 0 0 0 0 0
Neighs:        57868.0 ave       57868 max       57868 min
Histogram: 1 0 0 0 0 0 0 0 0 0

Total # of neighbors = 57868
Ave neighs/atom = 66.976852
Neighbor list builds = 0
Dangerous builds = 0
run 0
WARNING: No fixes defined, atoms won't move (../verlet.cpp:55)
Per MPI rank memory allocation (min/avg/max) = 3.418 | 3.418 | 3.418 Mbytes
Step Temp PotEng Press Pxy Xy Volume 
       0    504.90665   -3730.9747   -27005.409   -204.49534            0    9879.9698 
Loop time of 8.01e-07 on 1 procs for 0 steps with 864 atoms

249.7% CPU use with 1 MPI tasks x no OpenMP threads

MPI task timing breakdown:
Section |  min time  |  avg time  |  max time  |%varavg| %total
---------------------------------------------------------------
Pair    | 0          | 0          | 0          |   0.0 |  0.00
Neigh   | 0          | 0          | 0          |   0.0 |  0.00
Comm    | 0          | 0          | 0          |   0.0 |  0.00
Output  | 0          | 0          | 0          |   0.0 |  0.00
Modify  | 0          | 0          | 0          |   0.0 |  0.00
Other   |            | 8.01e-07   |            |       |100.00

Nlocal:        864.000 ave         864 max         864 min
Histogram: 1 0 0 0 0 0 0 0 0 0
Nghost:        3119.00 ave        3119 max        3119 min
Histogram: 1 0 0 0 0 0 0 0 0 0
Neighs:        57871.0 ave       57871 max       57871 min
Histogram: 1 0 0 0 0 0 0 0 0 0

Total # of neighbors = 57871
Ave neighs/atom = 66.980324
Neighbor list builds = 0
Dangerous builds = 0
run 0
WARNING: No fixes defined, atoms won't move (../verlet.cpp:55)
Per MPI rank memory allocation (min/avg/max) = 3.418 | 3.418 | 3.418 Mbytes
Step Temp PotEng Press Pxy Xy Volume 
       0    504.90665   -3730.9787   -27007.341   -204.64342            0    9879.9698 
Loop time of 8.81e-07 on 1 procs for 0 steps with 864 atoms

113.5% CPU use with 1 MPI tasks x no OpenMP threads

MPI task timing breakdown:
Section |  min time  |  avg time  |  max time  |%varavg| %total
---------------------------------------------------------------
Pair    | 0          | 0          | 0          |   0.0 |  0.00
Neigh   | 0          | 0          | 0          |   0.0 |  0.00
Comm    | 0          | 0          | 0          |   0.0 |  0.00
Output  | 0          | 0          | 0          |   0.0 |  0.00
Modify  | 0          | 0          | 0          |   0.0 |  0.00
Other   |            | 8.81e-07   |            |       |100.00

Nlocal:        864.000 ave         864 max         864 min
Histogram: 1 0 0 0 0 0 0 0 0 0
Nghost:        3119.00 ave        3119 max        3119 min
Histogram: 1 0 0 0 0 0 0 0 0 0
Neighs:        57871.0 ave       57871 max       57871 min
Histogram: 1 0 0 0 0 0 0 0 0 0

Total # of neighbors = 57871
Ave neighs/atom = 66.980324
Neighbor list builds = 0
Dangerous builds = 0
run 0
WARNING: No fixes defined, atoms won't move (../verlet.cpp:55)
Per MPI rank memory allocation (min/avg/max) = 3.418 | 3.418 | 3.418 Mbytes
Step Temp PotEng Press Pxy Xy Volume 
       0    504.90665   -3730.9905   -27013.114   -205.08668            0    9879.9698 
Loop time of 7.87e-07 on 1 procs for 0 steps with 864 atoms

127.1% CPU use with 1 MPI tasks x no OpenMP threads

MPI task timing breakdown:
Section |  min time  |  avg time  |  max time  |%varavg| %total
---------------------------------------------------------------
Pair    | 0          | 0          | 0          |   0.0 |  0.00
Neigh   | 0          | 0          | 0          |   0.0 |  0.00
Comm    | 0          | 0          | 0          |   0.0 |  0.00
Output  | 0          | 0          | 0          |   0.0 |  0.00
Modify  | 0          | 0          | 0          |   0.0 |  0.00
Other   |            | 7.87e-07   |            |       |100.00

Nlocal:        864.000 ave         864 max         864 min
Histogram: 1 0 0 0 0 0 0 0 0 0
Nghost:        3119.00 ave        3119 max        3119 min
Histogram: 1 0 0 0 0 0 0 0 0 0
Neighs:        57871.0 ave       57871 max       57871 min
Histogram: 1 0 0 0 0 0 0 0 0 0

Total # of neighbors = 57871
Ave neighs/atom = 66.980324
Neighbor list builds = 0
Dangerous builds = 0
run 0
WARNING: No fixes defined, atoms won't move (../verlet.cpp:55)
Per MPI rank memory allocation (min/avg/max) = 3.418 | 3.418 | 3.418 Mbytes
Step Temp PotEng Press Pxy Xy Volume 
       0    504.90665   -3731.0101   -27022.654   -205.82213            0    9879.9698 
Loop time of 8.49e-07 on 1 procs for 0 steps with 864 atoms

235.6% CPU use with 1 MPI tasks x no OpenMP threads

MPI task timing breakdown:
Section |  min time  |  avg time  |  max time  |%varavg| %total
---------------------------------------------------------------
Pair    | 0          | 0          | 0          |   0.0 |  0.00
Neigh   | 0          | 0          | 0          |   0.0 |  0.00
Comm    | 0          | 0          | 0          |   0.0 |  0.00
Output  | 0          | 0          | 0          |   0.0 |  0.00
Modify  | 0          | 0          | 0          |   0.0 |  0.00
Other   |            | 8.49e-07   |            |       |100.00

Nlocal:        864.000 ave         864 max         864 min
Histogram: 1 0 0 0 0 0 0 0 0 0
Nghost:        3119.00 ave        3119 max        3119 min
Histogram: 1 0 0 0 0 0 0 0 0 0
Neighs:        57871.0 ave       57871 max       57871 min
Histogram: 1 0 0 0 0 0 0 0 0 0

Total # of neighbors = 57871
Ave neighs/atom = 66.980324
Neighbor list builds = 0
Dangerous builds = 0
run 0
WARNING: No fixes defined, atoms won't move (../verlet.cpp:55)
Per MPI rank memory allocation (min/avg/max) = 3.418 | 3.418 | 3.418 Mbytes
Step Temp PotEng Press Pxy Xy Volume 
       0    504.90665   -3731.0372   -27035.844   -206.84475            0    9879.9698 
Loop time of 9.39e-07 on 1 procs for 0 steps with 864 atoms

213.0% CPU use with 1 MPI tasks x no OpenMP threads

MPI task timing breakdown:
Section |  min time  |  avg time  |  max time  |%varavg| %total
---------------------------------------------------------------
Pair    | 0          | 0          | 0          |   0.0 |  0.00
Neigh   | 0          | 0          | 0          |   0.0 |  0.00
Comm    | 0          | 0          | 0          |   0.0 |  0.00
Output  | 0          | 0          | 0          |   0.0 |  0.00
Modify  | 0          | 0          | 0          |   0.0 |  0.00
Other   |            | 9.39e-07   |            |       |100.00

Nlocal:        864.000 ave         864 max         864 min
Histogram: 1 0 0 0 0 0 0 0 0 0
Nghost:        3120.00 ave        3120 max        3120 min
Histogram: 1 0 0 0 0 0 0 0 0 0
Neighs:        57871.0 ave       57871 max       57871 min
Histogram: 1 0 0 0 0 0 0 0 0 0

Total # of neighbors = 57871
Ave neighs/atom = 66.980324
Neighbor list builds = 0
Dangerous builds = 0
run 0
WARNING: No fixes defined, atoms won't move (../verlet.cpp:55)
Per MPI rank memory allocation (min/avg/max) = 3.418 | 3.418 | 3.418 Mbytes
Step Temp PotEng Press Pxy Xy Volume 
       0    504.90665   -3731.0714   -27052.519    -208.1475            0    9879.9698 
Loop time of 8.49e-07 on 1 procs for 0 steps with 864 atoms

235.6% CPU use with 1 MPI tasks x no OpenMP threads

MPI task timing breakdown:
Section |  min time  |  avg time  |  max time  |%varavg| %total
---------------------------------------------------------------
Pair    | 0          | 0          | 0          |   0.0 |  0.00
Neigh   | 0          | 0          | 0          |   0.0 |  0.00
Comm    | 0          | 0          | 0          |   0.0 |  0.00
Output  | 0          | 0          | 0          |   0.0 |  0.00
Modify  | 0          | 0          | 0          |   0.0 |  0.00
Other   |            | 8.49e-07   |            |       |100.00

Nlocal:        864.000 ave         864 max         864 min
Histogram: 1 0 0 0 0 0 0 0 0 0
Nghost:        3124.00 ave        3124 max        3124 min
Histogram: 1 0 0 0 0 0 0 0 0 0
Neighs:        57871.0 ave       57871 max       57871 min
Histogram: 1 0 0 0 0 0 0 0 0 0

Total # of neighbors = 57871
Ave neighs/atom = 66.980324
Neighbor list builds = 0
Dangerous builds = 0
run 0
WARNING: No fixes defined, atoms won't move (../verlet.cpp:55)
Per MPI rank memory allocation (min/avg/max) = 3.418 | 3.418 | 3.418 Mbytes
Step Temp PotEng Press Pxy Xy Volume 
       0    504.90665   -3731.1124   -27072.473    -209.7213            0    9879.9698 
Loop time of 8.15e-07 on 1 procs for 0 steps with 864 atoms

245.4% CPU use with 1 MPI tasks x no OpenMP threads

MPI task timing breakdown:
Section |  min time  |  avg time  |  max time  |%varavg| %total
---------------------------------------------------------------
Pair    | 0          | 0          | 0          |   0.0 |  0.00
Neigh   | 0          | 0          | 0          |   0.0 |  0.00
Comm    | 0          | 0          | 0          |   0.0 |  0.00
Output  | 0          | 0          | 0          |   0.0 |  0.00
Modify  | 0          | 0          | 0          |   0.0 |  0.00
Other   |            | 8.15e-07   |            |       |100.00

Nlocal:        864.000 ave         864 max         864 min
Histogram: 1 0 0 0 0 0 0 0 0 0
Nghost:        3124.00 ave        3124 max        3124 min
Histogram: 1 0 0 0 0 0 0 0 0 0
Neighs:        57871.0 ave       57871 max       57871 min
Histogram: 1 0 0 0 0 0 0 0 0 0

Total # of neighbors = 57871
Ave neighs/atom = 66.980324
Neighbor list builds = 0
Dangerous builds = 0
run 0
WARNING: No fixes defined, atoms won't move (../verlet.cpp:55)
Per MPI rank memory allocation (min/avg/max) = 3.418 | 3.418 | 3.418 Mbytes
Step Temp PotEng Press Pxy Xy Volume 
       0    504.90665   -3731.1646   -27097.921   -211.75303            0    9879.9698 
Loop time of 8.62e-07 on 1 procs for 0 steps with 864 atoms

232.0% CPU use with 1 MPI tasks x no OpenMP threads

MPI task timing breakdown:
Section |  min time  |  avg time  |  max time  |%varavg| %total
---------------------------------------------------------------
Pair    | 0          | 0          | 0          |   0.0 |  0.00
Neigh   | 0          | 0          | 0          |   0.0 |  0.00
Comm    | 0          | 0          | 0          |   0.0 |  0.00
Output  | 0          | 0          | 0          |   0.0 |  0.00
Modify  | 0          | 0          | 0          |   0.0 |  0.00
Other   |            | 8.62e-07   |            |       |100.00

Nlocal:        864.000 ave         864 max         864 min
Histogram: 1 0 0 0 0 0 0 0 0 0
Nghost:        3124.00 ave        3124 max        3124 min
Histogram: 1 0 0 0 0 0 0 0 0 0
Neighs:        57872.0 ave       57872 max       57872 min
Histogram: 1 0 0 0 0 0 0 0 0 0

Total # of neighbors = 57872
Ave neighs/atom = 66.981481
Neighbor list builds = 0
Dangerous builds = 0
run 0
WARNING: No fixes defined, atoms won't move (../verlet.cpp:55)
Per MPI rank memory allocation (min/avg/max) = 3.418 | 3.418 | 3.418 Mbytes
Step Temp PotEng Press Pxy Xy Volume 
       0    504.90665     -3731.23   -27129.714   -214.33268            0    9879.9698 
Loop time of 8.01e-07 on 1 procs for 0 steps with 864 atoms

249.7% CPU use with 1 MPI tasks x no OpenMP threads

MPI task timing breakdown:
Section |  min time  |  avg time  |  max time  |%varavg| %total
---------------------------------------------------------------
Pair    | 0          | 0          | 0          |   0.0 |  0.00
Neigh   | 0          | 0          | 0          |   0.0 |  0.00
Comm    | 0          | 0          | 0          |   0.0 |  0.00
Output  | 0          | 0          | 0          |   0.0 |  0.00
Modify  | 0          | 0          | 0          |   0.0 |  0.00
Other   |            | 8.01e-07   |            |       |100.00

Nlocal:        864.000 ave         864 max         864 min
Histogram: 1 0 0 0 0 0 0 0 0 0
Nghost:        3124.00 ave        3124 max        3124 min
Histogram: 1 0 0 0 0 0 0 0 0 0
Neighs:        57872.0 ave       57872 max       57872 min
Histogram: 1 0 0 0 0 0 0 0 0 0

Total # of neighbors = 57872
Ave neighs/atom = 66.981481
Neighbor list builds = 0
Dangerous builds = 0
run 0
WARNING: No fixes defined, atoms won't move (../verlet.cpp:55)
Per MPI rank memory allocation (min/avg/max) = 3.418 | 3.418 | 3.418 Mbytes
Step Temp PotEng Press Pxy Xy Volume 
       0    504.90665     -3731.31   -27168.644   -217.55911            0    9879.9698 
Loop time of 8.05e-07 on 1 procs for 0 steps with 864 atoms

248.4% CPU use with 1 MPI tasks x no OpenMP threads

MPI task timing breakdown:
Section |  min time  |  avg time  |  max time  |%varavg| %total
---------------------------------------------------------------
Pair    | 0          | 0          | 0          |   0.0 |  0.00
Neigh   | 0          | 0          | 0          |   0.0 |  0.00
Comm    | 0          | 0          | 0          |   0.0 |  0.00
Output  | 0          | 0          | 0          |   0.0 |  0.00
Modify  | 0          | 0          | 0          |   0.0 |  0.00
Other   |            | 8.05e-07   |            |       |100.00

Nlocal:        864.000 ave         864 max         864 min
Histogram: 1 0 0 0 0 0 0 0 0 0
Nghost:        3124.00 ave        3124 max        3124 min
Histogram: 1 0 0 0 0 0 0 0 0 0
Neighs:        57872.0 ave       57872 max       57872 min
Histogram: 1 0 0 0 0 0 0 0 0 0

Total # of neighbors = 57872
Ave neighs/atom = 66.981481
Neighbor list builds = 0
Dangerous builds = 0
run 0
WARNING: No fixes defined, atoms won't move (../verlet.cpp:55)
Per MPI rank memory allocation (min/avg/max) = 3.418 | 3.418 | 3.418 Mbytes
Step Temp PotEng Press Pxy Xy Volume 
       0    504.90665   -3731.4061   -27215.325   -221.53663            0    9879.9698 
Loop time of 7.76e-07 on 1 procs for 0 steps with 864 atoms

257.7% CPU use with 1 MPI tasks x no OpenMP threads

MPI task timing breakdown:
Section |  min time  |  avg time  |  max time  |%varavg| %total
---------------------------------------------------------------
Pair    | 0          | 0          | 0          |   0.0 |  0.00
Neigh   | 0          | 0          | 0          |   0.0 |  0.00
Comm    | 0          | 0          | 0          |   0.0 |  0.00
Output  | 0          | 0          | 0          |   0.0 |  0.00
Modify  | 0          | 0          | 0          |   0.0 |  0.00
Other   |            | 7.76e-07   |            |       |100.00

Nlocal:        864.000 ave         864 max         864 min
Histogram: 1 0 0 0 0 0 0 0 0 0
Nghost:        3124.00 ave        3124 max        3124 min
Histogram: 1 0 0 0 0 0 0 0 0 0
Neighs:        57873.0 ave       57873 max       57873 min
Histogram: 1 0 0 0 0 0 0 0 0 0

Total # of neighbors = 57873
Ave neighs/atom = 66.982639
Neighbor list builds = 0
Dangerous builds = 0
run 0
WARNING: No fixes defined, atoms won't move (../verlet.cpp:55)
Per MPI rank memory allocation (min/avg/max) = 3.418 | 3.418 | 3.418 Mbytes
Step Temp PotEng Press Pxy Xy Volume 
       0    504.90665   -3731.5189    -27270.05   -226.36533            0    9879.9698 
Loop time of 8.03e-07 on 1 procs for 0 steps with 864 atoms

124.5% CPU use with 1 MPI tasks x no OpenMP threads

MPI task timing breakdown:
Section |  min time  |  avg time  |  max time  |%varavg| %total
---------------------------------------------------------------
Pair    | 0          | 0          | 0          |   0.0 |  0.00
Neigh   | 0          | 0          | 0          |   0.0 |  0.00
Comm    | 0          | 0          | 0          |   0.0 |  0.00
Output  | 0          | 0          | 0          |   0.0 |  0.00
Modify  | 0          | 0          | 0          |   0.0 |  0.00
Other   |            | 8.03e-07   |            |       |100.00

Nlocal:        864.000 ave         864 max         864 min
Histogram: 1 0 0 0 0 0 0 0 0 0
Nghost:        3128.00 ave        3128 max        3128 min
Histogram: 1 0 0 0 0 0 0 0 0 0
Neighs:        57875.0 ave       57875 max       57875 min
Histogram: 1 0 0 0 0 0 0 0 0 0

Total # of neighbors = 57875
Ave neighs/atom = 66.984954
Neighbor list builds = 0
Dangerous builds = 0
run 0
WARNING: No fixes defined, atoms won't move (../verlet.cpp:55)
Per MPI rank memory allocation (min/avg/max) = 3.418 | 3.418 | 3.418 Mbytes
Step Temp PotEng Press Pxy Xy Volume 
       0    504.90665   -3731.6479   -27332.567   -232.13392            0    9879.9698 
Loop time of 8.75e-07 on 1 procs for 0 steps with 864 atoms

228.6% CPU use with 1 MPI tasks x no OpenMP threads

MPI task timing breakdown:
Section |  min time  |  avg time  |  max time  |%varavg| %total
---------------------------------------------------------------
Pair    | 0          | 0          | 0          |   0.0 |  0.00
Neigh   | 0          | 0          | 0          |   0.0 |  0.00
Comm    | 0          | 0          | 0          |   0.0 |  0.00
Output  | 0          | 0          | 0          |   0.0 |  0.00
Modify  | 0          | 0          | 0          |   0.0 |  0.00
Other   |            | 8.75e-07   |            |       |100.00

Nlocal:        864.000 ave         864 max         864 min
Histogram: 1 0 0 0 0 0 0 0 0 0
Nghost:        3128.00 ave        3128 max        3128 min
Histogram: 1 0 0 0 0 0 0 0 0 0
Neighs:        57878.0 ave       57878 max       57878 min
Histogram: 1 0 0 0 0 0 0 0 0 0

Total # of neighbors = 57878
Ave neighs/atom = 66.988426
Neighbor list builds = 0
Dangerous builds = 0
run 0
WARNING: No fixes defined, atoms won't move (../verlet.cpp:55)
Per MPI rank memory allocation (min/avg/max) = 3.418 | 3.418 | 3.418 Mbytes
Step Temp PotEng Press Pxy Xy Volume 
       0    504.90665    -3731.791   -27401.857   -238.90928            0    9879.9698 
Loop time of 7.9e-07 on 1 procs for 0 steps with 864 atoms

253.2% CPU use with 1 MPI tasks x no OpenMP threads

MPI task timing breakdown:
Section |  min time  |  avg time  |  max time  |%varavg| %total
---------------------------------------------------------------
Pair    | 0          | 0          | 0          |   0.0 |  0.00
Neigh   | 0          | 0          | 0          |   0.0 |  0.00
Comm    | 0          | 0          | 0          |   0.0 |  0.00
Output  | 0          | 0          | 0          |   0.0 |  0.00
Modify  | 0          | 0          | 0          |   0.0 |  0.00
Other   |            | 7.9e-07    |            |       |100.00

Nlocal:        864.000 ave         864 max         864 min
Histogram: 1 0 0 0 0 0 0 0 0 0
Nghost:        3128.00 ave        3128 max        3128 min
Histogram: 1 0 0 0 0 0 0 0 0 0
Neighs:        57878.0 ave       57878 max       57878 min
Histogram: 1 0 0 0 0 0 0 0 0 0

Total # of neighbors = 57878
Ave neighs/atom = 66.988426
Neighbor list builds = 0
Dangerous builds = 0
run 0
WARNING: No fixes defined, atoms won't move (../verlet.cpp:55)
Per MPI rank memory allocation (min/avg/max) = 3.418 | 3.418 | 3.418 Mbytes
Step Temp PotEng Press Pxy Xy Volume 
       0    504.90665   -3731.9441   -27475.901   -246.70702            0    9879.9698 
Loop time of 8.37e-07 on 1 procs for 0 steps with 864 atoms

119.5% CPU use with 1 MPI tasks x no OpenMP threads

MPI task timing breakdown:
Section |  min time  |  avg time  |  max time  |%varavg| %total
---------------------------------------------------------------
Pair    | 0          | 0          | 0          |   0.0 |  0.00
Neigh   | 0          | 0          | 0          |   0.0 |  0.00
Comm    | 0          | 0          | 0          |   0.0 |  0.00
Output  | 0          | 0          | 0          |   0.0 |  0.00
Modify  | 0          | 0          | 0          |   0.0 |  0.00
Other   |            | 8.37e-07   |            |       |100.00

Nlocal:        864.000 ave         864 max         864 min
Histogram: 1 0 0 0 0 0 0 0 0 0
Nghost:        3128.00 ave        3128 max        3128 min
Histogram: 1 0 0 0 0 0 0 0 0 0
Neighs:        57880.0 ave       57880 max       57880 min
Histogram: 1 0 0 0 0 0 0 0 0 0

Total # of neighbors = 57880
Ave neighs/atom = 66.990741
Neighbor list builds = 0
Dangerous builds = 0
run 0
WARNING: No fixes defined, atoms won't move (../verlet.cpp:55)
Per MPI rank memory allocation (min/avg/max) = 3.418 | 3.418 | 3.418 Mbytes
Step Temp PotEng Press Pxy Xy Volume 
       0    504.90665   -3732.1007   -27551.577   -255.46719            0    9879.9698 
Loop time of 9.71e-07 on 1 procs for 0 steps with 864 atoms

206.0% CPU use with 1 MPI tasks x no OpenMP threads

MPI task timing breakdown:
Section |  min time  |  avg time  |  max time  |%varavg| %total
---------------------------------------------------------------
Pair    | 0          | 0          | 0          |   0.0 |  0.00
Neigh   | 0          | 0          | 0          |   0.0 |  0.00
Comm    | 0          | 0          | 0          |   0.0 |  0.00
Output  | 0          | 0          | 0          |   0.0 |  0.00
Modify  | 0          | 0          | 0          |   0.0 |  0.00
Other   |            | 9.71e-07   |            |       |100.00

Nlocal:        864.000 ave         864 max         864 min
Histogram: 1 0 0 0 0 0 0 0 0 0
Nghost:        3130.00 ave        3130 max        3130 min
Histogram: 1 0 0 0 0 0 0 0 0 0
Neighs:        57880.0 ave       57880 max       57880 min
Histogram: 1 0 0 0 0 0 0 0 0 0

Total # of neighbors = 57880
Ave neighs/atom = 66.990741
Neighbor list builds = 0
Dangerous builds = 0
run 0
[...]
Nghost:        3136.00 ave        3136 max        3136 min
Histogram: 1 0 0 0 0 0 0 0 0 0
Neighs:        57751.0 ave       57751 max       57751 min
Histogram: 1 0 0 0 0 0 0 0 0 0

Total # of neighbors = 57751
Ave neighs/atom = 66.841435
Neighbor list builds = 0
Dangerous builds = 0
run 0
Per MPI rank memory allocation (min/avg/max) = 3.418 | 3.418 | 3.418 Mbytes
Step Temp PotEng Press Pxy Xy Volume 
       0    504.90665   -3729.4722    -26019.45   -400.29046            0    9879.9698 
Loop time of 7.95e-07 on 1 procs for 0 steps with 864 atoms

125.8% CPU use with 1 MPI tasks x no OpenMP threads

MPI task timing breakdown:
Section |  min time  |  avg time  |  max time  |%varavg| %total
---------------------------------------------------------------
Pair    | 0          | 0          | 0          |   0.0 |  0.00
Neigh   | 0          | 0          | 0          |   0.0 |  0.00
Comm    | 0          | 0          | 0          |   0.0 |  0.00
Output  | 0          | 0          | 0          |   0.0 |  0.00
Modify  | 0          | 0          | 0          |   0.0 |  0.00
Other   |            | 7.95e-07   |            |       |100.00

Nlocal:        864.000 ave         864 max         864 min
Histogram: 1 0 0 0 0 0 0 0 0 0
Nghost:        3136.00 ave        3136 max        3136 min
Histogram: 1 0 0 0 0 0 0 0 0 0
Neighs:        57751.0 ave       57751 max       57751 min
Histogram: 1 0 0 0 0 0 0 0 0 0

Total # of neighbors = 57751
Ave neighs/atom = 66.841435
Neighbor list builds = 0
Dangerous builds = 0
run 0
Per MPI rank memory allocation (min/avg/max) = 3.418 | 3.418 | 3.418 Mbytes
Step Temp PotEng Press Pxy Xy Volume 
       0    504.90665   -3729.4714   -26018.641   -399.79681            0    9879.9698 
Loop time of 8.07e-07 on 1 procs for 0 steps with 864 atoms

247.8% CPU use with 1 MPI tasks x no OpenMP threads

MPI task timing breakdown:
Section |  min time  |  avg time  |  max time  |%varavg| %total
---------------------------------------------------------------
Pair    | 0          | 0          | 0          |   0.0 |  0.00
Neigh   | 0          | 0          | 0          |   0.0 |  0.00
Comm    | 0          | 0          | 0          |   0.0 |  0.00
Output  | 0          | 0          | 0          |   0.0 |  0.00
Modify  | 0          | 0          | 0          |   0.0 |  0.00
Other   |            | 8.07e-07   |            |       |100.00

Nlocal:        864.000 ave         864 max         864 min
Histogram: 1 0 0 0 0 0 0 0 0 0
Nghost:        3136.00 ave        3136 max        3136 min
Histogram: 1 0 0 0 0 0 0 0 0 0
Neighs:        57751.0 ave       57751 max       57751 min
Histogram: 1 0 0 0 0 0 0 0 0 0

Total # of neighbors = 57751
Ave neighs/atom = 66.841435
Neighbor list builds = 0
Dangerous builds = 0
run 0
Per MPI rank memory allocation (min/avg/max) = 3.418 | 3.418 | 3.418 Mbytes
Step Temp PotEng Press Pxy Xy Volume 
       0    504.90665   -3729.5248   -26052.107   -399.92153            0    9879.9698 
Loop time of 7.89e-07 on 1 procs for 0 steps with 864 atoms

126.7% CPU use with 1 MPI tasks x no OpenMP threads

MPI task timing breakdown:
Section |  min time  |  avg time  |  max time  |%varavg| %total
---------------------------------------------------------------
Pair    | 0          | 0          | 0          |   0.0 |  0.00
Neigh   | 0          | 0          | 0          |   0.0 |  0.00
Comm    | 0          | 0          | 0          |   0.0 |  0.00
Output  | 0          | 0          | 0          |   0.0 |  0.00
Modify  | 0          | 0          | 0          |   0.0 |  0.00
Other   |            | 7.89e-07   |            |       |100.00

Nlocal:        864.000 ave         864 max         864 min
Histogram: 1 0 0 0 0 0 0 0 0 0
Nghost:        3136.00 ave        3136 max        3136 min
Histogram: 1 0 0 0 0 0 0 0 0 0
Neighs:        57751.0 ave       57751 max       57751 min
Histogram: 1 0 0 0 0 0 0 0 0 0

Total # of neighbors = 57751
Ave neighs/atom = 66.841435
Neighbor list builds = 0
Dangerous builds = 0
run 0
Per MPI rank memory allocation (min/avg/max) = 3.418 | 3.418 | 3.418 Mbytes
Step Temp PotEng Press Pxy Xy Volume 
       0    504.90665   -3729.6782   -26147.674   -400.15748            0    9879.9698 
Loop time of 7.89e-07 on 1 procs for 0 steps with 864 atoms

253.5% CPU use with 1 MPI tasks x no OpenMP threads

MPI task timing breakdown:
Section |  min time  |  avg time  |  max time  |%varavg| %total
---------------------------------------------------------------
Pair    | 0          | 0          | 0          |   0.0 |  0.00
Neigh   | 0          | 0          | 0          |   0.0 |  0.00
Comm    | 0          | 0          | 0          |   0.0 |  0.00
Output  | 0          | 0          | 0          |   0.0 |  0.00
Modify  | 0          | 0          | 0          |   0.0 |  0.00
Other   |            | 7.89e-07   |            |       |100.00

Nlocal:        864.000 ave         864 max         864 min
Histogram: 1 0 0 0 0 0 0 0 0 0
Nghost:        3136.00 ave        3136 max        3136 min
Histogram: 1 0 0 0 0 0 0 0 0 0
Neighs:        57755.0 ave       57755 max       57755 min
Histogram: 1 0 0 0 0 0 0 0 0 0

Total # of neighbors = 57755
Ave neighs/atom = 66.846065
Neighbor list builds = 0
Dangerous builds = 0
run 0
Per MPI rank memory allocation (min/avg/max) = 3.418 | 3.418 | 3.418 Mbytes
Step Temp PotEng Press Pxy Xy Volume 
       0    504.90665   -3729.9138   -26291.789   -400.09461            0    9879.9698 
Loop time of 8.45e-07 on 1 procs for 0 steps with 864 atoms

236.7% CPU use with 1 MPI tasks x no OpenMP threads

MPI task timing breakdown:
Section |  min time  |  avg time  |  max time  |%varavg| %total
---------------------------------------------------------------
Pair    | 0          | 0          | 0          |   0.0 |  0.00
Neigh   | 0          | 0          | 0          |   0.0 |  0.00
Comm    | 0          | 0          | 0          |   0.0 |  0.00
Output  | 0          | 0          | 0          |   0.0 |  0.00
Modify  | 0          | 0          | 0          |   0.0 |  0.00
Other   |            | 8.45e-07   |            |       |100.00

Nlocal:        864.000 ave         864 max         864 min
Histogram: 1 0 0 0 0 0 0 0 0 0
Nghost:        3136.00 ave        3136 max        3136 min
Histogram: 1 0 0 0 0 0 0 0 0 0
Neighs:        57759.0 ave       57759 max       57759 min
Histogram: 1 0 0 0 0 0 0 0 0 0

Total # of neighbors = 57759
Ave neighs/atom = 66.850694
Neighbor list builds = 0
Dangerous builds = 0
run 0
Per MPI rank memory allocation (min/avg/max) = 3.418 | 3.418 | 3.418 Mbytes
Step Temp PotEng Press Pxy Xy Volume 
       0    504.90665   -3730.2067   -26464.924    -398.9904            0    9879.9698 
Loop time of 7.96e-07 on 1 procs for 0 steps with 864 atoms

125.6% CPU use with 1 MPI tasks x no OpenMP threads

MPI task timing breakdown:
Section |  min time  |  avg time  |  max time  |%varavg| %total
---------------------------------------------------------------
Pair    | 0          | 0          | 0          |   0.0 |  0.00
Neigh   | 0          | 0          | 0          |   0.0 |  0.00
Comm    | 0          | 0          | 0          |   0.0 |  0.00
Output  | 0          | 0          | 0          |   0.0 |  0.00
Modify  | 0          | 0          | 0          |   0.0 |  0.00
Other   |            | 7.96e-07   |            |       |100.00

Nlocal:        864.000 ave         864 max         864 min
Histogram: 1 0 0 0 0 0 0 0 0 0
Nghost:        3136.00 ave        3136 max        3136 min
Histogram: 1 0 0 0 0 0 0 0 0 0
Neighs:        57766.0 ave       57766 max       57766 min
Histogram: 1 0 0 0 0 0 0 0 0 0

Total # of neighbors = 57766
Ave neighs/atom = 66.858796
Neighbor list builds = 0
Dangerous builds = 0
run 0
Per MPI rank memory allocation (min/avg/max) = 3.418 | 3.418 | 3.418 Mbytes
Step Temp PotEng Press Pxy Xy Volume 
       0    504.90665   -3730.5314   -26646.174   -396.03929            0    9879.9698 
Loop time of 7.94e-07 on 1 procs for 0 steps with 864 atoms

125.9% CPU use with 1 MPI tasks x no OpenMP threads

MPI task timing breakdown:
Section |  min time  |  avg time  |  max time  |%varavg| %total
---------------------------------------------------------------
Pair    | 0          | 0          | 0          |   0.0 |  0.00
Neigh   | 0          | 0          | 0          |   0.0 |  0.00
Comm    | 0          | 0          | 0          |   0.0 |  0.00
Output  | 0          | 0          | 0          |   0.0 |  0.00
Modify  | 0          | 0          | 0          |   0.0 |  0.00
Other   |            | 7.94e-07   |            |       |100.00

Nlocal:        864.000 ave         864 max         864 min
Histogram: 1 0 0 0 0 0 0 0 0 0
Nghost:        3136.00 ave        3136 max        3136 min
Histogram: 1 0 0 0 0 0 0 0 0 0
Neighs:        57774.0 ave       57774 max       57774 min
Histogram: 1 0 0 0 0 0 0 0 0 0

Total # of neighbors = 57774
Ave neighs/atom = 66.868056
Neighbor list builds = 0
Dangerous builds = 0
run 0
Per MPI rank memory allocation (min/avg/max) = 3.418 | 3.418 | 3.418 Mbytes
Step Temp PotEng Press Pxy Xy Volume 
       0    504.90665    -3730.866   -26818.076   -390.51156            0    9879.9698 
Loop time of 8.03e-07 on 1 procs for 0 steps with 864 atoms

249.1% CPU use with 1 MPI tasks x no OpenMP threads

MPI task timing breakdown:
Section |  min time  |  avg time  |  max time  |%varavg| %total
---------------------------------------------------------------
Pair    | 0          | 0          | 0          |   0.0 |  0.00
Neigh   | 0          | 0          | 0          |   0.0 |  0.00
Comm    | 0          | 0          | 0          |   0.0 |  0.00
Output  | 0          | 0          | 0          |   0.0 |  0.00
Modify  | 0          | 0          | 0          |   0.0 |  0.00
Other   |            | 8.03e-07   |            |       |100.00

Nlocal:        864.000 ave         864 max         864 min
Histogram: 1 0 0 0 0 0 0 0 0 0
Nghost:        3136.00 ave        3136 max        3136 min
Histogram: 1 0 0 0 0 0 0 0 0 0
Neighs:        57781.0 ave       57781 max       57781 min
Histogram: 1 0 0 0 0 0 0 0 0 0

Total # of neighbors = 57781
Ave neighs/atom = 66.876157
Neighbor list builds = 0
Dangerous builds = 0
run 0
Per MPI rank memory allocation (min/avg/max) = 3.418 | 3.418 | 3.418 Mbytes
Step Temp PotEng Press Pxy Xy Volume 
       0    504.90665   -3729.3235    -25959.51    -409.6444            0    9879.9698 
Loop time of 8.05e-07 on 1 procs for 0 steps with 864 atoms

248.4% CPU use with 1 MPI tasks x no OpenMP threads

MPI task timing breakdown:
Section |  min time  |  avg time  |  max time  |%varavg| %total
---------------------------------------------------------------
Pair    | 0          | 0          | 0          |   0.0 |  0.00
Neigh   | 0          | 0          | 0          |   0.0 |  0.00
Comm    | 0          | 0          | 0          |   0.0 |  0.00
Output  | 0          | 0          | 0          |   0.0 |  0.00
Modify  | 0          | 0          | 0          |   0.0 |  0.00
Other   |            | 8.05e-07   |            |       |100.00

Nlocal:        864.000 ave         864 max         864 min
Histogram: 1 0 0 0 0 0 0 0 0 0
Nghost:        3136.00 ave        3136 max        3136 min
Histogram: 1 0 0 0 0 0 0 0 0 0
Neighs:        57743.0 ave       57743 max       57743 min
Histogram: 1 0 0 0 0 0 0 0 0 0

Total # of neighbors = 57743
Ave neighs/atom = 66.832176
Neighbor list builds = 0
Dangerous builds = 0
run 0
Per MPI rank memory allocation (min/avg/max) = 3.418 | 3.418 | 3.418 Mbytes
Step Temp PotEng Press Pxy Xy Volume 
       0    504.90665   -3729.3234   -25959.544   -409.67243            0    9879.9698 
Loop time of 8.1e-07 on 1 procs for 0 steps with 864 atoms

123.5% CPU use with 1 MPI tasks x no OpenMP threads

MPI task timing breakdown:
Section |  min time  |  avg time  |  max time  |%varavg| %total
---------------------------------------------------------------
Pair    | 0          | 0          | 0          |   0.0 |  0.00
Neigh   | 0          | 0          | 0          |   0.0 |  0.00
Comm    | 0          | 0          | 0          |   0.0 |  0.00
Output  | 0          | 0          | 0          |   0.0 |  0.00
Modify  | 0          | 0          | 0          |   0.0 |  0.00
Other   |            | 8.1e-07    |            |       |100.00

Nlocal:        864.000 ave         864 max         864 min
Histogram: 1 0 0 0 0 0 0 0 0 0
Nghost:        3136.00 ave        3136 max        3136 min
Histogram: 1 0 0 0 0 0 0 0 0 0
Neighs:        57743.0 ave       57743 max       57743 min
Histogram: 1 0 0 0 0 0 0 0 0 0

Total # of neighbors = 57743
Ave neighs/atom = 66.832176
Neighbor list builds = 0
Dangerous builds = 0
run 0
Per MPI rank memory allocation (min/avg/max) = 3.418 | 3.418 | 3.418 Mbytes
Step Temp PotEng Press Pxy Xy Volume 
       0    504.90665   -3729.3235   -25959.475   -409.61639            0    9879.9698 
Loop time of 7.68e-07 on 1 procs for 0 steps with 864 atoms

260.4% CPU use with 1 MPI tasks x no OpenMP threads

MPI task timing breakdown:
Section |  min time  |  avg time  |  max time  |%varavg| %total
---------------------------------------------------------------
Pair    | 0          | 0          | 0          |   0.0 |  0.00
Neigh   | 0          | 0          | 0          |   0.0 |  0.00
Comm    | 0          | 0          | 0          |   0.0 |  0.00
Output  | 0          | 0          | 0          |   0.0 |  0.00
Modify  | 0          | 0          | 0          |   0.0 |  0.00
Other   |            | 7.68e-07   |            |       |100.00

Nlocal:        864.000 ave         864 max         864 min
Histogram: 1 0 0 0 0 0 0 0 0 0
Nghost:        3136.00 ave        3136 max        3136 min
Histogram: 1 0 0 0 0 0 0 0 0 0
Neighs:        57743.0 ave       57743 max       57743 min
Histogram: 1 0 0 0 0 0 0 0 0 0

Total # of neighbors = 57743
Ave neighs/atom = 66.832176
Neighbor list builds = 0
Dangerous builds = 0
run 0
Per MPI rank memory allocation (min/avg/max) = 3.418 | 3.418 | 3.418 Mbytes
Step Temp PotEng Press Pxy Xy Volume 
       0    504.90665   -3729.3232   -25959.754   -410.33239            0    9879.9698 
Loop time of 8.16e-07 on 1 procs for 0 steps with 864 atoms

122.5% CPU use with 1 MPI tasks x no OpenMP threads

MPI task timing breakdown:
Section |  min time  |  avg time  |  max time  |%varavg| %total
---------------------------------------------------------------
Pair    | 0          | 0          | 0          |   0.0 |  0.00
Neigh   | 0          | 0          | 0          |   0.0 |  0.00
Comm    | 0          | 0          | 0          |   0.0 |  0.00
Output  | 0          | 0          | 0          |   0.0 |  0.00
Modify  | 0          | 0          | 0          |   0.0 |  0.00
Other   |            | 8.16e-07   |            |       |100.00

Nlocal:        864.000 ave         864 max         864 min
Histogram: 1 0 0 0 0 0 0 0 0 0
Nghost:        3136.00 ave        3136 max        3136 min
Histogram: 1 0 0 0 0 0 0 0 0 0
Neighs:        57743.0 ave       57743 max       57743 min
Histogram: 1 0 0 0 0 0 0 0 0 0

Total # of neighbors = 57743
Ave neighs/atom = 66.832176
Neighbor list builds = 0
Dangerous builds = 0
run 0
Per MPI rank memory allocation (min/avg/max) = 3.418 | 3.418 | 3.418 Mbytes
Step Temp PotEng Press Pxy Xy Volume 
       0    504.90665   -3729.3237   -25959.258    -408.9562            0    9879.9698 
Loop time of 7.96e-07 on 1 procs for 0 steps with 864 atoms

251.3% CPU use with 1 MPI tasks x no OpenMP threads

MPI task timing breakdown:
Section |  min time  |  avg time  |  max time  |%varavg| %total
---------------------------------------------------------------
Pair    | 0          | 0          | 0          |   0.0 |  0.00
Neigh   | 0          | 0          | 0          |   0.0 |  0.00
Comm    | 0          | 0          | 0          |   0.0 |  0.00
Output  | 0          | 0          | 0          |   0.0 |  0.00
Modify  | 0          | 0          | 0          |   0.0 |  0.00
Other   |            | 7.96e-07   |            |       |100.00

Nlocal:        864.000 ave         864 max         864 min
Histogram: 1 0 0 0 0 0 0 0 0 0
Nghost:        3136.00 ave        3136 max        3136 min
Histogram: 1 0 0 0 0 0 0 0 0 0
Neighs:        57743.0 ave       57743 max       57743 min
Histogram: 1 0 0 0 0 0 0 0 0 0

Total # of neighbors = 57743
Ave neighs/atom = 66.832176
Neighbor list builds = 0
Dangerous builds = 0
run 0
Per MPI rank memory allocation (min/avg/max) = 3.418 | 3.418 | 3.418 Mbytes
Step Temp PotEng Press Pxy Xy Volume 
       0    504.90665   -3729.3235    -25959.51    -409.6444            0    9879.9698 
Loop time of 8.2e-07 on 1 procs for 0 steps with 864 atoms

243.9% CPU use with 1 MPI tasks x no OpenMP threads

MPI task timing breakdown:
Section |  min time  |  avg time  |  max time  |%varavg| %total
---------------------------------------------------------------
Pair    | 0          | 0          | 0          |   0.0 |  0.00
Neigh   | 0          | 0          | 0          |   0.0 |  0.00
Comm    | 0          | 0          | 0          |   0.0 |  0.00
Output  | 0          | 0          | 0          |   0.0 |  0.00
Modify  | 0          | 0          | 0          |   0.0 |  0.00
Other   |            | 8.2e-07    |            |       |100.00

Nlocal:        864.000 ave         864 max         864 min
Histogram: 1 0 0 0 0 0 0 0 0 0
Nghost:        3136.00 ave        3136 max        3136 min
Histogram: 1 0 0 0 0 0 0 0 0 0
Neighs:        57743.0 ave       57743 max       57743 min
Histogram: 1 0 0 0 0 0 0 0 0 0

Total # of neighbors = 57743
Ave neighs/atom = 66.832176
Neighbor list builds = 0
Dangerous builds = 0
run 0
Per MPI rank memory allocation (min/avg/max) = 3.418 | 3.418 | 3.418 Mbytes
Step Temp PotEng Press Pxy Xy Volume 
       0    504.90665   -3729.3774   -25993.087   -409.76631            0    9879.9698 
Loop time of 7.79e-07 on 1 procs for 0 steps with 864 atoms

256.7% CPU use with 1 MPI tasks x no OpenMP threads

MPI task timing breakdown:
Section |  min time  |  avg time  |  max time  |%varavg| %total
---------------------------------------------------------------
Pair    | 0          | 0          | 0          |   0.0 |  0.00
Neigh   | 0          | 0          | 0          |   0.0 |  0.00
Comm    | 0          | 0          | 0          |   0.0 |  0.00
Output  | 0          | 0          | 0          |   0.0 |  0.00
Modify  | 0          | 0          | 0          |   0.0 |  0.00
Other   |            | 7.79e-07   |            |       |100.00

Nlocal:        864.000 ave         864 max         864 min
Histogram: 1 0 0 0 0 0 0 0 0 0
Nghost:        3136.00 ave        3136 max        3136 min
Histogram: 1 0 0 0 0 0 0 0 0 0
Neighs:        57743.0 ave       57743 max       57743 min
Histogram: 1 0 0 0 0 0 0 0 0 0

Total # of neighbors = 57743
Ave neighs/atom = 66.832176
Neighbor list builds = 0
Dangerous builds = 0
run 0
Per MPI rank memory allocation (min/avg/max) = 3.418 | 3.418 | 3.418 Mbytes
Step Temp PotEng Press Pxy Xy Volume 
       0    504.90665   -3729.5324   -26088.984    -409.9937            0    9879.9698 
Loop time of 7.96e-07 on 1 procs for 0 steps with 864 atoms

251.3% CPU use with 1 MPI tasks x no OpenMP threads

MPI task timing breakdown:
Section |  min time  |  avg time  |  max time  |%varavg| %total
---------------------------------------------------------------
Pair    | 0          | 0          | 0          |   0.0 |  0.00
Neigh   | 0          | 0          | 0          |   0.0 |  0.00
Comm    | 0          | 0          | 0          |   0.0 |  0.00
Output  | 0          | 0          | 0          |   0.0 |  0.00
Modify  | 0          | 0          | 0          |   0.0 |  0.00
Other   |            | 7.96e-07   |            |       |100.00

Nlocal:        864.000 ave         864 max         864 min
Histogram: 1 0 0 0 0 0 0 0 0 0
Nghost:        3136.00 ave        3136 max        3136 min
Histogram: 1 0 0 0 0 0 0 0 0 0
Neighs:        57746.0 ave       57746 max       57746 min
Histogram: 1 0 0 0 0 0 0 0 0 0

Total # of neighbors = 57746
Ave neighs/atom = 66.835648
Neighbor list builds = 0
Dangerous builds = 0
ds = 0
rous builds = 0
